+ 0.1 0 4 ping 64 ------- 1 0.0 5.0 -1 0
- 0.1 0 4 ping 64 ------- 1 0.0 5.0 -1 0
+ 0.1 5 4 ping 64 ------- 5 5.4 4.0 -1 1
- 0.1 5 4 ping 64 ------- 5 5.4 4.0 -1 1
+ 0.1 0 4 ping 64 ------- 1 0.0 5.0 -1 2
+ 0.1 5 4 ping 64 ------- 5 5.4 4.0 -1 3
+ 0.1 0 4 ping 64 ------- 1 0.0 5.0 -1 4
+ 0.1 5 4 ping 64 ------- 5 5.4 4.0 -1 5
+ 0.1 0 4 ping 64 ------- 1 0.0 5.0 -1 6
+ 0.1 5 4 ping 64 ------- 5 5.4 4.0 -1 7
+ 0.1 0 4 ping 64 ------- 1 0.0 5.0 -1 8
+ 0.1 5 4 ping 64 ------- 5 5.4 4.0 -1 9
+ 0.1 0 4 ping 64 ------- 1 0.0 5.0 -1 10
+ 0.1 5 4 ping 64 ------- 5 5.4 4.0 -1 11
+ 0.1 0 4 ping 64 ------- 1 0.0 5.0 -1 12
+ 0.1 5 4 ping 64 ------- 5 5.4 4.0 -1 13
+ 0.1 0 4 ping 64 ------- 1 0.0 5.0 -1 14
+ 0.1 5 4 ping 64 ------- 5 5.4 4.0 -1 15
+ 0.1 0 4 ping 64 ------- 1 0.0 5.0 -1 16
+ 0.1 5 4 ping 64 ------- 5 5.4 4.0 -1 17
+ 0.1 0 4 ping 64 ------- 1 0.0 5.0 -1 18
+ 0.1 5 4 ping 64 ------- 5 5.4 4.0 -1 19
- 0.100512 0 4 ping 64 ------- 1 0.0 5.0 -1 2
- 0.100512 5 4 ping 64 ------- 5 5.4 4.0 -1 3
- 0.101024 0 4 ping 64 ------- 1 0.0 5.0 -1 4
- 0.101024 5 4 ping 64 ------- 5 5.4 4.0 -1 5
- 0.101536 0 4 ping 64 ------- 1 0.0 5.0 -1 6
- 0.101536 5 4 ping 64 ------- 5 5.4 4.0 -1 7
- 0.102048 0 4 ping 64 ------- 1 0.0 5.0 -1 8
- 0.102048 5 4 ping 64 ------- 5 5.4 4.0 -1 9
- 0.10256 0 4 ping 64 ------- 1 0.0 5.0 -1 10
- 0.10256 5 4 ping 64 ------- 5 5.4 4.0 -1 11
- 0.103072 0 4 ping 64 ------- 1 0.0 5.0 -1 12
- 0.103072 5 4 ping 64 ------- 5 5.4 4.0 -1 13
- 0.103584 0 4 ping 64 ------- 1 0.0 5.0 -1 14
- 0.103584 5 4 ping 64 ------- 5 5.4 4.0 -1 15
- 0.104096 0 4 ping 64 ------- 1 0.0 5.0 -1 16
- 0.104096 5 4 ping 64 ------- 5 5.4 4.0 -1 17
- 0.104608 0 4 ping 64 ------- 1 0.0 5.0 -1 18
- 0.104608 5 4 ping 64 ------- 5 5.4 4.0 -1 19
r 0.110512 0 4 ping 64 ------- 1 0.0 5.0 -1 0
+ 0.110512 4 5 ping 64 ------- 1 0.0 5.0 -1 0
- 0.110512 4 5 ping 64 ------- 1 0.0 5.0 -1 0
r 0.110512 5 4 ping 64 ------- 5 5.4 4.0 -1 1
+ 0.110512 4 5 ping 64 ------- 5 4.0 5.4 -1 20
- 0.111024 4 5 ping 64 ------- 5 4.0 5.4 -1 20
r 0.111024 0 4 ping 64 ------- 1 0.0 5.0 -1 2
+ 0.111024 4 5 ping 64 ------- 1 0.0 5.0 -1 2
r 0.111024 5 4 ping 64 ------- 5 5.4 4.0 -1 3
+ 0.111024 4 5 ping 64 ------- 5 4.0 5.4 -1 21
r 0.111536 0 4 ping 64 ------- 1 0.0 5.0 -1 4
+ 0.111536 4 5 ping 64 ------- 1 0.0 5.0 -1 4
d 0.111536 4 5 ping 64 ------- 1 0.0 5.0 -1 4
r 0.111536 5 4 ping 64 ------- 5 5.4 4.0 -1 5
+ 0.111536 4 5 ping 64 ------- 5 4.0 5.4 -1 22
d 0.111536 4 5 ping 64 ------- 5 4.0 5.4 -1 22
- 0.111536 4 5 ping 64 ------- 1 0.0 5.0 -1 2
- 0.112048 4 5 ping 64 ------- 5 4.0 5.4 -1 21
r 0.112048 0 4 ping 64 ------- 1 0.0 5.0 -1 6
+ 0.112048 4 5 ping 64 ------- 1 0.0 5.0 -1 6
r 0.112048 5 4 ping 64 ------- 5 5.4 4.0 -1 7
+ 0.112048 4 5 ping 64 ------- 5 4.0 5.4 -1 23
r 0.11256 0 4 ping 64 ------- 1 0.0 5.0 -1 8
+ 0.11256 4 5 ping 64 ------- 1 0.0 5.0 -1 8
d 0.11256 4 5 ping 64 ------- 1 0.0 5.0 -1 8
r 0.11256 5 4 ping 64 ------- 5 5.4 4.0 -1 9
+ 0.11256 4 5 ping 64 ------- 5 4.0 5.4 -1 24
d 0.11256 4 5 ping 64 ------- 5 4.0 5.4 -1 24
- 0.11256 4 5 ping 64 ------- 1 0.0 5.0 -1 6
- 0.113072 4 5 ping 64 ------- 5 4.0 5.4 -1 23
r 0.113072 0 4 ping 64 ------- 1 0.0 5.0 -1 10
+ 0.113072 4 5 ping 64 ------- 1 0.0 5.0 -1 10
r 0.113072 5 4 ping 64 ------- 5 5.4 4.0 -1 11
+ 0.113072 4 5 ping 64 ------- 5 4.0 5.4 -1 25
r 0.113584 0 4 ping 64 ------- 1 0.0 5.0 -1 12
+ 0.113584 4 5 ping 64 ------- 1 0.0 5.0 -1 12
d 0.113584 4 5 ping 64 ------- 1 0.0 5.0 -1 12
r 0.113584 5 4 ping 64 ------- 5 5.4 4.0 -1 13
+ 0.113584 4 5 ping 64 ------- 5 4.0 5.4 -1 26
d 0.113584 4 5 ping 64 ------- 5 4.0 5.4 -1 26
- 0.113584 4 5 ping 64 ------- 1 0.0 5.0 -1 10
- 0.114096 4 5 ping 64 ------- 5 4.0 5.4 -1 25
r 0.114096 0 4 ping 64 ------- 1 0.0 5.0 -1 14
+ 0.114096 4 5 ping 64 ------- 1 0.0 5.0 -1 14
r 0.114096 5 4 ping 64 ------- 5 5.4 4.0 -1 15
+ 0.114096 4 5 ping 64 ------- 5 4.0 5.4 -1 27
r 0.114608 0 4 ping 64 ------- 1 0.0 5.0 -1 16
+ 0.114608 4 5 ping 64 ------- 1 0.0 5.0 -1 16
d 0.114608 4 5 ping 64 ------- 1 0.0 5.0 -1 16
r 0.114608 5 4 ping 64 ------- 5 5.4 4.0 -1 17
+ 0.114608 4 5 ping 64 ------- 5 4.0 5.4 -1 28
d 0.114608 4 5 ping 64 ------- 5 4.0 5.4 -1 28
- 0.114608 4 5 ping 64 ------- 1 0.0 5.0 -1 14
- 0.11512 4 5 ping 64 ------- 5 4.0 5.4 -1 27
r 0.11512 0 4 ping 64 ------- 1 0.0 5.0 -1 18
+ 0.11512 4 5 ping 64 ------- 1 0.0 5.0 -1 18
r 0.11512 5 4 ping 64 ------- 5 5.4 4.0 -1 19
+ 0.11512 4 5 ping 64 ------- 5 4.0 5.4 -1 29
- 0.115632 4 5 ping 64 ------- 1 0.0 5.0 -1 18
- 0.116144 4 5 ping 64 ------- 5 4.0 5.4 -1 29
r 0.121024 4 5 ping 64 ------- 1 0.0 5.0 -1 0
+ 0.121024 5 4 ping 64 ------- 1 5.0 0.0 -1 30
- 0.121024 5 4 ping 64 ------- 1 5.0 0.0 -1 30
r 0.121536 4 5 ping 64 ------- 5 4.0 5.4 -1 20
r 0.122048 4 5 ping 64 ------- 1 0.0 5.0 -1 2
+ 0.122048 5 4 ping 64 ------- 1 5.0 0.0 -1 31
- 0.122048 5 4 ping 64 ------- 1 5.0 0.0 -1 31
r 0.12256 4 5 ping 64 ------- 5 4.0 5.4 -1 21
r 0.123072 4 5 ping 64 ------- 1 0.0 5.0 -1 6
+ 0.123072 5 4 ping 64 ------- 1 5.0 0.0 -1 32
- 0.123072 5 4 ping 64 ------- 1 5.0 0.0 -1 32
r 0.123584 4 5 ping 64 ------- 5 4.0 5.4 -1 23
r 0.124096 4 5 ping 64 ------- 1 0.0 5.0 -1 10
+ 0.124096 5 4 ping 64 ------- 1 5.0 0.0 -1 33
- 0.124096 5 4 ping 64 ------- 1 5.0 0.0 -1 33
r 0.124608 4 5 ping 64 ------- 5 4.0 5.4 -1 25
r 0.12512 4 5 ping 64 ------- 1 0.0 5.0 -1 14
+ 0.12512 5 4 ping 64 ------- 1 5.0 0.0 -1 34
- 0.12512 5 4 ping 64 ------- 1 5.0 0.0 -1 34
r 0.125632 4 5 ping 64 ------- 5 4.0 5.4 -1 27
r 0.126144 4 5 ping 64 ------- 1 0.0 5.0 -1 18
+ 0.126144 5 4 ping 64 ------- 1 5.0 0.0 -1 35
- 0.126144 5 4 ping 64 ------- 1 5.0 0.0 -1 35
r 0.126656 4 5 ping 64 ------- 5 4.0 5.4 -1 29
r 0.131536 5 4 ping 64 ------- 1 5.0 0.0 -1 30
+ 0.131536 4 0 ping 64 ------- 1 5.0 0.0 -1 30
- 0.131536 4 0 ping 64 ------- 1 5.0 0.0 -1 30
r 0.13256 5 4 ping 64 ------- 1 5.0 0.0 -1 31
+ 0.13256 4 0 ping 64 ------- 1 5.0 0.0 -1 31
- 0.13256 4 0 ping 64 ------- 1 5.0 0.0 -1 31
r 0.133584 5 4 ping 64 ------- 1 5.0 0.0 -1 32
+ 0.133584 4 0 ping 64 ------- 1 5.0 0.0 -1 32
- 0.133584 4 0 ping 64 ------- 1 5.0 0.0 -1 32
r 0.134608 5 4 ping 64 ------- 1 5.0 0.0 -1 33
+ 0.134608 4 0 ping 64 ------- 1 5.0 0.0 -1 33
- 0.134608 4 0 ping 64 ------- 1 5.0 0.0 -1 33
r 0.135632 5 4 ping 64 ------- 1 5.0 0.0 -1 34
+ 0.135632 4 0 ping 64 ------- 1 5.0 0.0 -1 34
- 0.135632 4 0 ping 64 ------- 1 5.0 0.0 -1 34
r 0.136656 5 4 ping 64 ------- 1 5.0 0.0 -1 35
+ 0.136656 4 0 ping 64 ------- 1 5.0 0.0 -1 35
- 0.136656 4 0 ping 64 ------- 1 5.0 0.0 -1 35
r 0.142048 4 0 ping 64 ------- 1 5.0 0.0 -1 30
r 0.143072 4 0 ping 64 ------- 1 5.0 0.0 -1 31
r 0.144096 4 0 ping 64 ------- 1 5.0 0.0 -1 32
r 0.14512 4 0 ping 64 ------- 1 5.0 0.0 -1 33
r 0.146144 4 0 ping 64 ------- 1 5.0 0.0 -1 34
r 0.147168 4 0 ping 64 ------- 1 5.0 0.0 -1 35
+ 0.2 1 4 ping 64 ------- 2 1.0 5.1 -1 36
- 0.2 1 4 ping 64 ------- 2 1.0 5.1 -1 36
+ 0.2 1 4 ping 64 ------- 2 1.0 5.1 -1 37
+ 0.2 1 4 ping 64 ------- 2 1.0 5.1 -1 38
+ 0.2 1 4 ping 64 ------- 2 1.0 5.1 -1 39
+ 0.2 1 4 ping 64 ------- 2 1.0 5.1 -1 40
+ 0.2 1 4 ping 64 ------- 2 1.0 5.1 -1 41
+ 0.2 1 4 ping 64 ------- 2 1.0 5.1 -1 42
+ 0.2 1 4 ping 64 ------- 2 1.0 5.1 -1 43
+ 0.2 1 4 ping 64 ------- 2 1.0 5.1 -1 44
+ 0.2 1 4 ping 64 ------- 2 1.0 5.1 -1 45
- 0.200512 1 4 ping 64 ------- 2 1.0 5.1 -1 37
- 0.201024 1 4 ping 64 ------- 2 1.0 5.1 -1 38
- 0.201536 1 4 ping 64 ------- 2 1.0 5.1 -1 39
- 0.202048 1 4 ping 64 ------- 2 1.0 5.1 -1 40
- 0.20256 1 4 ping 64 ------- 2 1.0 5.1 -1 41
- 0.203072 1 4 ping 64 ------- 2 1.0 5.1 -1 42
- 0.203584 1 4 ping 64 ------- 2 1.0 5.1 -1 43
- 0.204096 1 4 ping 64 ------- 2 1.0 5.1 -1 44
- 0.204608 1 4 ping 64 ------- 2 1.0 5.1 -1 45
r 0.210512 1 4 ping 64 ------- 2 1.0 5.1 -1 36
+ 0.210512 4 5 ping 64 ------- 2 1.0 5.1 -1 36
- 0.210512 4 5 ping 64 ------- 2 1.0 5.1 -1 36
r 0.211024 1 4 ping 64 ------- 2 1.0 5.1 -1 37
+ 0.211024 4 5 ping 64 ------- 2 1.0 5.1 -1 37
- 0.211024 4 5 ping 64 ------- 2 1.0 5.1 -1 37
r 0.211536 1 4 ping 64 ------- 2 1.0 5.1 -1 38
+ 0.211536 4 5 ping 64 ------- 2 1.0 5.1 -1 38
- 0.211536 4 5 ping 64 ------- 2 1.0 5.1 -1 38
r 0.212048 1 4 ping 64 ------- 2 1.0 5.1 -1 39
+ 0.212048 4 5 ping 64 ------- 2 1.0 5.1 -1 39
- 0.212048 4 5 ping 64 ------- 2 1.0 5.1 -1 39
r 0.21256 1 4 ping 64 ------- 2 1.0 5.1 -1 40
+ 0.21256 4 5 ping 64 ------- 2 1.0 5.1 -1 40
- 0.21256 4 5 ping 64 ------- 2 1.0 5.1 -1 40
r 0.213072 1 4 ping 64 ------- 2 1.0 5.1 -1 41
+ 0.213072 4 5 ping 64 ------- 2 1.0 5.1 -1 41
- 0.213072 4 5 ping 64 ------- 2 1.0 5.1 -1 41
r 0.213584 1 4 ping 64 ------- 2 1.0 5.1 -1 42
+ 0.213584 4 5 ping 64 ------- 2 1.0 5.1 -1 42
- 0.213584 4 5 ping 64 ------- 2 1.0 5.1 -1 42
r 0.214096 1 4 ping 64 ------- 2 1.0 5.1 -1 43
+ 0.214096 4 5 ping 64 ------- 2 1.0 5.1 -1 43
- 0.214096 4 5 ping 64 ------- 2 1.0 5.1 -1 43
r 0.214608 1 4 ping 64 ------- 2 1.0 5.1 -1 44
+ 0.214608 4 5 ping 64 ------- 2 1.0 5.1 -1 44
- 0.214608 4 5 ping 64 ------- 2 1.0 5.1 -1 44
r 0.21512 1 4 ping 64 ------- 2 1.0 5.1 -1 45
+ 0.21512 4 5 ping 64 ------- 2 1.0 5.1 -1 45
- 0.21512 4 5 ping 64 ------- 2 1.0 5.1 -1 45
r 0.221024 4 5 ping 64 ------- 2 1.0 5.1 -1 36
+ 0.221024 5 4 ping 64 ------- 2 5.1 1.0 -1 46
- 0.221024 5 4 ping 64 ------- 2 5.1 1.0 -1 46
r 0.221536 4 5 ping 64 ------- 2 1.0 5.1 -1 37
+ 0.221536 5 4 ping 64 ------- 2 5.1 1.0 -1 47
- 0.221536 5 4 ping 64 ------- 2 5.1 1.0 -1 47
r 0.222048 4 5 ping 64 ------- 2 1.0 5.1 -1 38
+ 0.222048 5 4 ping 64 ------- 2 5.1 1.0 -1 48
- 0.222048 5 4 ping 64 ------- 2 5.1 1.0 -1 48
r 0.22256 4 5 ping 64 ------- 2 1.0 5.1 -1 39
+ 0.22256 5 4 ping 64 ------- 2 5.1 1.0 -1 49
- 0.22256 5 4 ping 64 ------- 2 5.1 1.0 -1 49
r 0.223072 4 5 ping 64 ------- 2 1.0 5.1 -1 40
+ 0.223072 5 4 ping 64 ------- 2 5.1 1.0 -1 50
- 0.223072 5 4 ping 64 ------- 2 5.1 1.0 -1 50
r 0.223584 4 5 ping 64 ------- 2 1.0 5.1 -1 41
+ 0.223584 5 4 ping 64 ------- 2 5.1 1.0 -1 51
- 0.223584 5 4 ping 64 ------- 2 5.1 1.0 -1 51
r 0.224096 4 5 ping 64 ------- 2 1.0 5.1 -1 42
+ 0.224096 5 4 ping 64 ------- 2 5.1 1.0 -1 52
- 0.224096 5 4 ping 64 ------- 2 5.1 1.0 -1 52
r 0.224608 4 5 ping 64 ------- 2 1.0 5.1 -1 43
+ 0.224608 5 4 ping 64 ------- 2 5.1 1.0 -1 53
- 0.224608 5 4 ping 64 ------- 2 5.1 1.0 -1 53
r 0.22512 4 5 ping 64 ------- 2 1.0 5.1 -1 44
+ 0.22512 5 4 ping 64 ------- 2 5.1 1.0 -1 54
- 0.22512 5 4 ping 64 ------- 2 5.1 1.0 -1 54
r 0.225632 4 5 ping 64 ------- 2 1.0 5.1 -1 45
+ 0.225632 5 4 ping 64 ------- 2 5.1 1.0 -1 55
- 0.225632 5 4 ping 64 ------- 2 5.1 1.0 -1 55
r 0.231536 5 4 ping 64 ------- 2 5.1 1.0 -1 46
+ 0.231536 4 1 ping 64 ------- 2 5.1 1.0 -1 46
- 0.231536 4 1 ping 64 ------- 2 5.1 1.0 -1 46
r 0.232048 5 4 ping 64 ------- 2 5.1 1.0 -1 47
+ 0.232048 4 1 ping 64 ------- 2 5.1 1.0 -1 47
- 0.232048 4 1 ping 64 ------- 2 5.1 1.0 -1 47
r 0.23256 5 4 ping 64 ------- 2 5.1 1.0 -1 48
+ 0.23256 4 1 ping 64 ------- 2 5.1 1.0 -1 48
- 0.23256 4 1 ping 64 ------- 2 5.1 1.0 -1 48
r 0.233072 5 4 ping 64 ------- 2 5.1 1.0 -1 49
+ 0.233072 4 1 ping 64 ------- 2 5.1 1.0 -1 49
- 0.233072 4 1 ping 64 ------- 2 5.1 1.0 -1 49
r 0.233584 5 4 ping 64 ------- 2 5.1 1.0 -1 50
+ 0.233584 4 1 ping 64 ------- 2 5.1 1.0 -1 50
- 0.233584 4 1 ping 64 ------- 2 5.1 1.0 -1 50
r 0.234096 5 4 ping 64 ------- 2 5.1 1.0 -1 51
+ 0.234096 4 1 ping 64 ------- 2 5.1 1.0 -1 51
- 0.234096 4 1 ping 64 ------- 2 5.1 1.0 -1 51
r 0.234608 5 4 ping 64 ------- 2 5.1 1.0 -1 52
+ 0.234608 4 1 ping 64 ------- 2 5.1 1.0 -1 52
- 0.234608 4 1 ping 64 ------- 2 5.1 1.0 -1 52
r 0.23512 5 4 ping 64 ------- 2 5.1 1.0 -1 53
+ 0.23512 4 1 ping 64 ------- 2 5.1 1.0 -1 53
- 0.23512 4 1 ping 64 ------- 2 5.1 1.0 -1 53
r 0.235632 5 4 ping 64 ------- 2 5.1 1.0 -1 54
+ 0.235632 4 1 ping 64 ------- 2 5.1 1.0 -1 54
- 0.235632 4 1 ping 64 ------- 2 5.1 1.0 -1 54
r 0.236144 5 4 ping 64 ------- 2 5.1 1.0 -1 55
+ 0.236144 4 1 ping 64 ------- 2 5.1 1.0 -1 55
- 0.236144 4 1 ping 64 ------- 2 5.1 1.0 -1 55
r 0.242048 4 1 ping 64 ------- 2 5.1 1.0 -1 46
r 0.24256 4 1 ping 64 ------- 2 5.1 1.0 -1 47
r 0.243072 4 1 ping 64 ------- 2 5.1 1.0 -1 48
r 0.243584 4 1 ping 64 ------- 2 5.1 1.0 -1 49
r 0.244096 4 1 ping 64 ------- 2 5.1 1.0 -1 50
r 0.244608 4 1 ping 64 ------- 2 5.1 1.0 -1 51
r 0.24512 4 1 ping 64 ------- 2 5.1 1.0 -1 52
r 0.245632 4 1 ping 64 ------- 2 5.1 1.0 -1 53
r 0.246144 4 1 ping 64 ------- 2 5.1 1.0 -1 54
r 0.246656 4 1 ping 64 ------- 2 5.1 1.0 -1 55
+ 0.3 2 4 ping 64 ------- 3 2.0 5.2 -1 56
- 0.3 2 4 ping 64 ------- 3 2.0 5.2 -1 56
+ 0.3 2 4 ping 64 ------- 3 2.0 5.2 -1 57
+ 0.3 2 4 ping 64 ------- 3 2.0 5.2 -1 58
+ 0.3 2 4 ping 64 ------- 3 2.0 5.2 -1 59
+ 0.3 2 4 ping 64 ------- 3 2.0 5.2 -1 60
+ 0.3 2 4 ping 64 ------- 3 2.0 5.2 -1 61
+ 0.3 2 4 ping 64 ------- 3 2.0 5.2 -1 62
+ 0.3 2 4 ping 64 ------- 3 2.0 5.2 -1 63
+ 0.3 2 4 ping 64 ------- 3 2.0 5.2 -1 64
+ 0.3 2 4 ping 64 ------- 3 2.0 5.2 -1 65
- 0.300512 2 4 ping 64 ------- 3 2.0 5.2 -1 57
- 0.301024 2 4 ping 64 ------- 3 2.0 5.2 -1 58
- 0.301536 2 4 ping 64 ------- 3 2.0 5.2 -1 59
- 0.302048 2 4 ping 64 ------- 3 2.0 5.2 -1 60
- 0.30256 2 4 ping 64 ------- 3 2.0 5.2 -1 61
- 0.303072 2 4 ping 64 ------- 3 2.0 5.2 -1 62
- 0.303584 2 4 ping 64 ------- 3 2.0 5.2 -1 63
- 0.304096 2 4 ping 64 ------- 3 2.0 5.2 -1 64
- 0.304608 2 4 ping 64 ------- 3 2.0 5.2 -1 65
r 0.310512 2 4 ping 64 ------- 3 2.0 5.2 -1 56
+ 0.310512 4 5 ping 64 ------- 3 2.0 5.2 -1 56
- 0.310512 4 5 ping 64 ------- 3 2.0 5.2 -1 56
r 0.311024 2 4 ping 64 ------- 3 2.0 5.2 -1 57
+ 0.311024 4 5 ping 64 ------- 3 2.0 5.2 -1 57
- 0.311024 4 5 ping 64 ------- 3 2.0 5.2 -1 57
r 0.311536 2 4 ping 64 ------- 3 2.0 5.2 -1 58
+ 0.311536 4 5 ping 64 ------- 3 2.0 5.2 -1 58
- 0.311536 4 5 ping 64 ------- 3 2.0 5.2 -1 58
r 0.312048 2 4 ping 64 ------- 3 2.0 5.2 -1 59
+ 0.312048 4 5 ping 64 ------- 3 2.0 5.2 -1 59
- 0.312048 4 5 ping 64 ------- 3 2.0 5.2 -1 59
r 0.31256 2 4 ping 64 ------- 3 2.0 5.2 -1 60
+ 0.31256 4 5 ping 64 ------- 3 2.0 5.2 -1 60
- 0.31256 4 5 ping 64 ------- 3 2.0 5.2 -1 60
r 0.313072 2 4 ping 64 ------- 3 2.0 5.2 -1 61
+ 0.313072 4 5 ping 64 ------- 3 2.0 5.2 -1 61
- 0.313072 4 5 ping 64 ------- 3 2.0 5.2 -1 61
r 0.313584 2 4 ping 64 ------- 3 2.0 5.2 -1 62
+ 0.313584 4 5 ping 64 ------- 3 2.0 5.2 -1 62
- 0.313584 4 5 ping 64 ------- 3 2.0 5.2 -1 62
r 0.314096 2 4 ping 64 ------- 3 2.0 5.2 -1 63
+ 0.314096 4 5 ping 64 ------- 3 2.0 5.2 -1 63
- 0.314096 4 5 ping 64 ------- 3 2.0 5.2 -1 63
r 0.314608 2 4 ping 64 ------- 3 2.0 5.2 -1 64
+ 0.314608 4 5 ping 64 ------- 3 2.0 5.2 -1 64
- 0.314608 4 5 ping 64 ------- 3 2.0 5.2 -1 64
r 0.31512 2 4 ping 64 ------- 3 2.0 5.2 -1 65
+ 0.31512 4 5 ping 64 ------- 3 2.0 5.2 -1 65
- 0.31512 4 5 ping 64 ------- 3 2.0 5.2 -1 65
r 0.321024 4 5 ping 64 ------- 3 2.0 5.2 -1 56
+ 0.321024 5 4 ping 64 ------- 3 5.2 2.0 -1 66
- 0.321024 5 4 ping 64 ------- 3 5.2 2.0 -1 66
r 0.321536 4 5 ping 64 ------- 3 2.0 5.2 -1 57
+ 0.321536 5 4 ping 64 ------- 3 5.2 2.0 -1 67
- 0.321536 5 4 ping 64 ------- 3 5.2 2.0 -1 67
r 0.322048 4 5 ping 64 ------- 3 2.0 5.2 -1 58
+ 0.322048 5 4 ping 64 ------- 3 5.2 2.0 -1 68
- 0.322048 5 4 ping 64 ------- 3 5.2 2.0 -1 68
r 0.32256 4 5 ping 64 ------- 3 2.0 5.2 -1 59
+ 0.32256 5 4 ping 64 ------- 3 5.2 2.0 -1 69
- 0.32256 5 4 ping 64 ------- 3 5.2 2.0 -1 69
r 0.323072 4 5 ping 64 ------- 3 2.0 5.2 -1 60
+ 0.323072 5 4 ping 64 ------- 3 5.2 2.0 -1 70
- 0.323072 5 4 ping 64 ------- 3 5.2 2.0 -1 70
r 0.323584 4 5 ping 64 ------- 3 2.0 5.2 -1 61
+ 0.323584 5 4 ping 64 ------- 3 5.2 2.0 -1 71
- 0.323584 5 4 ping 64 ------- 3 5.2 2.0 -1 71
r 0.324096 4 5 ping 64 ------- 3 2.0 5.2 -1 62
+ 0.324096 5 4 ping 64 ------- 3 5.2 2.0 -1 72
- 0.324096 5 4 ping 64 ------- 3 5.2 2.0 -1 72
r 0.324608 4 5 ping 64 ------- 3 2.0 5.2 -1 63
+ 0.324608 5 4 ping 64 ------- 3 5.2 2.0 -1 73
- 0.324608 5 4 ping 64 ------- 3 5.2 2.0 -1 73
r 0.32512 4 5 ping 64 ------- 3 2.0 5.2 -1 64
+ 0.32512 5 4 ping 64 ------- 3 5.2 2.0 -1 74
- 0.32512 5 4 ping 64 ------- 3 5.2 2.0 -1 74
r 0.325632 4 5 ping 64 ------- 3 2.0 5.2 -1 65
+ 0.325632 5 4 ping 64 ------- 3 5.2 2.0 -1 75
- 0.325632 5 4 ping 64 ------- 3 5.2 2.0 -1 75
r 0.331536 5 4 ping 64 ------- 3 5.2 2.0 -1 66
+ 0.331536 4 2 ping 64 ------- 3 5.2 2.0 -1 66
- 0.331536 4 2 ping 64 ------- 3 5.2 2.0 -1 66
r 0.332048 5 4 ping 64 ------- 3 5.2 2.0 -1 67
+ 0.332048 4 2 ping 64 ------- 3 5.2 2.0 -1 67
- 0.332048 4 2 ping 64 ------- 3 5.2 2.0 -1 67
r 0.33256 5 4 ping 64 ------- 3 5.2 2.0 -1 68
+ 0.33256 4 2 ping 64 ------- 3 5.2 2.0 -1 68
- 0.33256 4 2 ping 64 ------- 3 5.2 2.0 -1 68
r 0.333072 5 4 ping 64 ------- 3 5.2 2.0 -1 69
+ 0.333072 4 2 ping 64 ------- 3 5.2 2.0 -1 69
- 0.333072 4 2 ping 64 ------- 3 5.2 2.0 -1 69
r 0.333584 5 4 ping 64 ------- 3 5.2 2.0 -1 70
+ 0.333584 4 2 ping 64 ------- 3 5.2 2.0 -1 70
- 0.333584 4 2 ping 64 ------- 3 5.2 2.0 -1 70
r 0.334096 5 4 ping 64 ------- 3 5.2 2.0 -1 71
+ 0.334096 4 2 ping 64 ------- 3 5.2 2.0 -1 71
- 0.334096 4 2 ping 64 ------- 3 5.2 2.0 -1 71
r 0.334608 5 4 ping 64 ------- 3 5.2 2.0 -1 72
+ 0.334608 4 2 ping 64 ------- 3 5.2 2.0 -1 72
- 0.334608 4 2 ping 64 ------- 3 5.2 2.0 -1 72
r 0.33512 5 4 ping 64 ------- 3 5.2 2.0 -1 73
+ 0.33512 4 2 ping 64 ------- 3 5.2 2.0 -1 73
- 0.33512 4 2 ping 64 ------- 3 5.2 2.0 -1 73
r 0.335632 5 4 ping 64 ------- 3 5.2 2.0 -1 74
+ 0.335632 4 2 ping 64 ------- 3 5.2 2.0 -1 74
- 0.335632 4 2 ping 64 ------- 3 5.2 2.0 -1 74
r 0.336144 5 4 ping 64 ------- 3 5.2 2.0 -1 75
+ 0.336144 4 2 ping 64 ------- 3 5.2 2.0 -1 75
- 0.336144 4 2 ping 64 ------- 3 5.2 2.0 -1 75
r 0.342048 4 2 ping 64 ------- 3 5.2 2.0 -1 66
r 0.34256 4 2 ping 64 ------- 3 5.2 2.0 -1 67
r 0.343072 4 2 ping 64 ------- 3 5.2 2.0 -1 68
r 0.343584 4 2 ping 64 ------- 3 5.2 2.0 -1 69
r 0.344096 4 2 ping 64 ------- 3 5.2 2.0 -1 70
r 0.344608 4 2 ping 64 ------- 3 5.2 2.0 -1 71
r 0.34512 4 2 ping 64 ------- 3 5.2 2.0 -1 72
r 0.345632 4 2 ping 64 ------- 3 5.2 2.0 -1 73
r 0.346144 4 2 ping 64 ------- 3 5.2 2.0 -1 74
r 0.346656 4 2 ping 64 ------- 3 5.2 2.0 -1 75
+ 0.4 3 4 ping 64 ------- 4 3.0 5.3 -1 76
- 0.4 3 4 ping 64 ------- 4 3.0 5.3 -1 76
+ 0.4 3 4 ping 64 ------- 4 3.0 5.3 -1 77
+ 0.4 3 4 ping 64 ------- 4 3.0 5.3 -1 78
+ 0.4 3 4 ping 64 ------- 4 3.0 5.3 -1 79
+ 0.4 3 4 ping 64 ------- 4 3.0 5.3 -1 80
+ 0.4 3 4 ping 64 ------- 4 3.0 5.3 -1 81
+ 0.4 3 4 ping 64 ------- 4 3.0 5.3 -1 82
+ 0.4 3 4 ping 64 ------- 4 3.0 5.3 -1 83
+ 0.4 3 4 ping 64 ------- 4 3.0 5.3 -1 84
+ 0.4 3 4 ping 64 ------- 4 3.0 5.3 -1 85
- 0.400512 3 4 ping 64 ------- 4 3.0 5.3 -1 77
- 0.401024 3 4 ping 64 ------- 4 3.0 5.3 -1 78
- 0.401536 3 4 ping 64 ------- 4 3.0 5.3 -1 79
- 0.402048 3 4 ping 64 ------- 4 3.0 5.3 -1 80
- 0.40256 3 4 ping 64 ------- 4 3.0 5.3 -1 81
- 0.403072 3 4 ping 64 ------- 4 3.0 5.3 -1 82
- 0.403584 3 4 ping 64 ------- 4 3.0 5.3 -1 83
- 0.404096 3 4 ping 64 ------- 4 3.0 5.3 -1 84
- 0.404608 3 4 ping 64 ------- 4 3.0 5.3 -1 85
r 0.410512 3 4 ping 64 ------- 4 3.0 5.3 -1 76
+ 0.410512 4 5 ping 64 ------- 4 3.0 5.3 -1 76
- 0.410512 4 5 ping 64 ------- 4 3.0 5.3 -1 76
r 0.411024 3 4 ping 64 ------- 4 3.0 5.3 -1 77
+ 0.411024 4 5 ping 64 ------- 4 3.0 5.3 -1 77
- 0.411024 4 5 ping 64 ------- 4 3.0 5.3 -1 77
r 0.411536 3 4 ping 64 ------- 4 3.0 5.3 -1 78
+ 0.411536 4 5 ping 64 ------- 4 3.0 5.3 -1 78
- 0.411536 4 5 ping 64 ------- 4 3.0 5.3 -1 78
r 0.412048 3 4 ping 64 ------- 4 3.0 5.3 -1 79
+ 0.412048 4 5 ping 64 ------- 4 3.0 5.3 -1 79
- 0.412048 4 5 ping 64 ------- 4 3.0 5.3 -1 79
r 0.41256 3 4 ping 64 ------- 4 3.0 5.3 -1 80
+ 0.41256 4 5 ping 64 ------- 4 3.0 5.3 -1 80
- 0.41256 4 5 ping 64 ------- 4 3.0 5.3 -1 80
r 0.413072 3 4 ping 64 ------- 4 3.0 5.3 -1 81
+ 0.413072 4 5 ping 64 ------- 4 3.0 5.3 -1 81
- 0.413072 4 5 ping 64 ------- 4 3.0 5.3 -1 81
r 0.413584 3 4 ping 64 ------- 4 3.0 5.3 -1 82
+ 0.413584 4 5 ping 64 ------- 4 3.0 5.3 -1 82
- 0.413584 4 5 ping 64 ------- 4 3.0 5.3 -1 82
r 0.414096 3 4 ping 64 ------- 4 3.0 5.3 -1 83
+ 0.414096 4 5 ping 64 ------- 4 3.0 5.3 -1 83
- 0.414096 4 5 ping 64 ------- 4 3.0 5.3 -1 83
r 0.414608 3 4 ping 64 ------- 4 3.0 5.3 -1 84
+ 0.414608 4 5 ping 64 ------- 4 3.0 5.3 -1 84
- 0.414608 4 5 ping 64 ------- 4 3.0 5.3 -1 84
r 0.41512 3 4 ping 64 ------- 4 3.0 5.3 -1 85
+ 0.41512 4 5 ping 64 ------- 4 3.0 5.3 -1 85
- 0.41512 4 5 ping 64 ------- 4 3.0 5.3 -1 85
r 0.421024 4 5 ping 64 ------- 4 3.0 5.3 -1 76
+ 0.421024 5 4 ping 64 ------- 4 5.3 3.0 -1 86
- 0.421024 5 4 ping 64 ------- 4 5.3 3.0 -1 86
r 0.421536 4 5 ping 64 ------- 4 3.0 5.3 -1 77
+ 0.421536 5 4 ping 64 ------- 4 5.3 3.0 -1 87
- 0.421536 5 4 ping 64 ------- 4 5.3 3.0 -1 87
r 0.422048 4 5 ping 64 ------- 4 3.0 5.3 -1 78
+ 0.422048 5 4 ping 64 ------- 4 5.3 3.0 -1 88
- 0.422048 5 4 ping 64 ------- 4 5.3 3.0 -1 88
r 0.42256 4 5 ping 64 ------- 4 3.0 5.3 -1 79
+ 0.42256 5 4 ping 64 ------- 4 5.3 3.0 -1 89
- 0.42256 5 4 ping 64 ------- 4 5.3 3.0 -1 89
r 0.423072 4 5 ping 64 ------- 4 3.0 5.3 -1 80
+ 0.423072 5 4 ping 64 ------- 4 5.3 3.0 -1 90
- 0.423072 5 4 ping 64 ------- 4 5.3 3.0 -1 90
r 0.423584 4 5 ping 64 ------- 4 3.0 5.3 -1 81
+ 0.423584 5 4 ping 64 ------- 4 5.3 3.0 -1 91
- 0.423584 5 4 ping 64 ------- 4 5.3 3.0 -1 91
r 0.424096 4 5 ping 64 ------- 4 3.0 5.3 -1 82
+ 0.424096 5 4 ping 64 ------- 4 5.3 3.0 -1 92
- 0.424096 5 4 ping 64 ------- 4 5.3 3.0 -1 92
r 0.424608 4 5 ping 64 ------- 4 3.0 5.3 -1 83
+ 0.424608 5 4 ping 64 ------- 4 5.3 3.0 -1 93
- 0.424608 5 4 ping 64 ------- 4 5.3 3.0 -1 93
r 0.42512 4 5 ping 64 ------- 4 3.0 5.3 -1 84
+ 0.42512 5 4 ping 64 ------- 4 5.3 3.0 -1 94
- 0.42512 5 4 ping 64 ------- 4 5.3 3.0 -1 94
r 0.425632 4 5 ping 64 ------- 4 3.0 5.3 -1 85
+ 0.425632 5 4 ping 64 ------- 4 5.3 3.0 -1 95
- 0.425632 5 4 ping 64 ------- 4 5.3 3.0 -1 95
r 0.431536 5 4 ping 64 ------- 4 5.3 3.0 -1 86
+ 0.431536 4 3 ping 64 ------- 4 5.3 3.0 -1 86
- 0.431536 4 3 ping 64 ------- 4 5.3 3.0 -1 86
r 0.432048 5 4 ping 64 ------- 4 5.3 3.0 -1 87
+ 0.432048 4 3 ping 64 ------- 4 5.3 3.0 -1 87
- 0.432048 4 3 ping 64 ------- 4 5.3 3.0 -1 87
r 0.43256 5 4 ping 64 ------- 4 5.3 3.0 -1 88
+ 0.43256 4 3 ping 64 ------- 4 5.3 3.0 -1 88
- 0.43256 4 3 ping 64 ------- 4 5.3 3.0 -1 88
r 0.433072 5 4 ping 64 ------- 4 5.3 3.0 -1 89
+ 0.433072 4 3 ping 64 ------- 4 5.3 3.0 -1 89
- 0.433072 4 3 ping 64 ------- 4 5.3 3.0 -1 89
r 0.433584 5 4 ping 64 ------- 4 5.3 3.0 -1 90
+ 0.433584 4 3 ping 64 ------- 4 5.3 3.0 -1 90
- 0.433584 4 3 ping 64 ------- 4 5.3 3.0 -1 90
r 0.434096 5 4 ping 64 ------- 4 5.3 3.0 -1 91
+ 0.434096 4 3 ping 64 ------- 4 5.3 3.0 -1 91
- 0.434096 4 3 ping 64 ------- 4 5.3 3.0 -1 91
r 0.434608 5 4 ping 64 ------- 4 5.3 3.0 -1 92
+ 0.434608 4 3 ping 64 ------- 4 5.3 3.0 -1 92
- 0.434608 4 3 ping 64 ------- 4 5.3 3.0 -1 92
r 0.43512 5 4 ping 64 ------- 4 5.3 3.0 -1 93
+ 0.43512 4 3 ping 64 ------- 4 5.3 3.0 -1 93
- 0.43512 4 3 ping 64 ------- 4 5.3 3.0 -1 93
r 0.435632 5 4 ping 64 ------- 4 5.3 3.0 -1 94
+ 0.435632 4 3 ping 64 ------- 4 5.3 3.0 -1 94
- 0.435632 4 3 ping 64 ------- 4 5.3 3.0 -1 94
r 0.436144 5 4 ping 64 ------- 4 5.3 3.0 -1 95
+ 0.436144 4 3 ping 64 ------- 4 5.3 3.0 -1 95
- 0.436144 4 3 ping 64 ------- 4 5.3 3.0 -1 95
r 0.442048 4 3 ping 64 ------- 4 5.3 3.0 -1 86
r 0.44256 4 3 ping 64 ------- 4 5.3 3.0 -1 87
r 0.443072 4 3 ping 64 ------- 4 5.3 3.0 -1 88
r 0.443584 4 3 ping 64 ------- 4 5.3 3.0 -1 89
r 0.444096 4 3 ping 64 ------- 4 5.3 3.0 -1 90
r 0.444608 4 3 ping 64 ------- 4 5.3 3.0 -1 91
r 0.44512 4 3 ping 64 ------- 4 5.3 3.0 -1 92
r 0.445632 4 3 ping 64 ------- 4 5.3 3.0 -1 93
r 0.446144 4 3 ping 64 ------- 4 5.3 3.0 -1 94
r 0.446656 4 3 ping 64 ------- 4 5.3 3.0 -1 95
+ 0.5 5 4 ping 64 ------- 5 5.4 4.0 -1 96
- 0.5 5 4 ping 64 ------- 5 5.4 4.0 -1 96
+ 0.5 5 4 ping 64 ------- 5 5.4 4.0 -1 97
+ 0.5 5 4 ping 64 ------- 5 5.4 4.0 -1 98
+ 0.5 5 4 ping 64 ------- 5 5.4 4.0 -1 99
+ 0.5 5 4 ping 64 ------- 5 5.4 4.0 -1 100
+ 0.5 5 4 ping 64 ------- 5 5.4 4.0 -1 101
+ 0.5 5 4 ping 64 ------- 5 5.4 4.0 -1 102
+ 0.5 5 4 ping 64 ------- 5 5.4 4.0 -1 103
+ 0.5 5 4 ping 64 ------- 5 5.4 4.0 -1 104
+ 0.5 5 4 ping 64 ------- 5 5.4 4.0 -1 105
- 0.500512 5 4 ping 64 ------- 5 5.4 4.0 -1 97
- 0.501024 5 4 ping 64 ------- 5 5.4 4.0 -1 98
- 0.501536 5 4 ping 64 ------- 5 5.4 4.0 -1 99
- 0.502048 5 4 ping 64 ------- 5 5.4 4.0 -1 100
- 0.50256 5 4 ping 64 ------- 5 5.4 4.0 -1 101
- 0.503072 5 4 ping 64 ------- 5 5.4 4.0 -1 102
- 0.503584 5 4 ping 64 ------- 5 5.4 4.0 -1 103
- 0.504096 5 4 ping 64 ------- 5 5.4 4.0 -1 104
- 0.504608 5 4 ping 64 ------- 5 5.4 4.0 -1 105
r 0.510512 5 4 ping 64 ------- 5 5.4 4.0 -1 96
+ 0.510512 4 5 ping 64 ------- 5 4.0 5.4 -1 106
- 0.510512 4 5 ping 64 ------- 5 4.0 5.4 -1 106
r 0.511024 5 4 ping 64 ------- 5 5.4 4.0 -1 97
+ 0.511024 4 5 ping 64 ------- 5 4.0 5.4 -1 107
- 0.511024 4 5 ping 64 ------- 5 4.0 5.4 -1 107
r 0.511536 5 4 ping 64 ------- 5 5.4 4.0 -1 98
+ 0.511536 4 5 ping 64 ------- 5 4.0 5.4 -1 108
- 0.511536 4 5 ping 64 ------- 5 4.0 5.4 -1 108
r 0.512048 5 4 ping 64 ------- 5 5.4 4.0 -1 99
+ 0.512048 4 5 ping 64 ------- 5 4.0 5.4 -1 109
- 0.512048 4 5 ping 64 ------- 5 4.0 5.4 -1 109
r 0.51256 5 4 ping 64 ------- 5 5.4 4.0 -1 100
+ 0.51256 4 5 ping 64 ------- 5 4.0 5.4 -1 110
- 0.51256 4 5 ping 64 ------- 5 4.0 5.4 -1 110
r 0.513072 5 4 ping 64 ------- 5 5.4 4.0 -1 101
+ 0.513072 4 5 ping 64 ------- 5 4.0 5.4 -1 111
- 0.513072 4 5 ping 64 ------- 5 4.0 5.4 -1 111
r 0.513584 5 4 ping 64 ------- 5 5.4 4.0 -1 102
+ 0.513584 4 5 ping 64 ------- 5 4.0 5.4 -1 112
- 0.513584 4 5 ping 64 ------- 5 4.0 5.4 -1 112
r 0.514096 5 4 ping 64 ------- 5 5.4 4.0 -1 103
+ 0.514096 4 5 ping 64 ------- 5 4.0 5.4 -1 113
- 0.514096 4 5 ping 64 ------- 5 4.0 5.4 -1 113
r 0.514608 5 4 ping 64 ------- 5 5.4 4.0 -1 104
+ 0.514608 4 5 ping 64 ------- 5 4.0 5.4 -1 114
- 0.514608 4 5 ping 64 ------- 5 4.0 5.4 -1 114
r 0.51512 5 4 ping 64 ------- 5 5.4 4.0 -1 105
+ 0.51512 4 5 ping 64 ------- 5 4.0 5.4 -1 115
- 0.51512 4 5 ping 64 ------- 5 4.0 5.4 -1 115
r 0.521024 4 5 ping 64 ------- 5 4.0 5.4 -1 106
r 0.521536 4 5 ping 64 ------- 5 4.0 5.4 -1 107
r 0.522048 4 5 ping 64 ------- 5 4.0 5.4 -1 108
r 0.52256 4 5 ping 64 ------- 5 4.0 5.4 -1 109
r 0.523072 4 5 ping 64 ------- 5 4.0 5.4 -1 110
r 0.523584 4 5 ping 64 ------- 5 4.0 5.4 -1 111
r 0.524096 4 5 ping 64 ------- 5 4.0 5.4 -1 112
r 0.524608 4 5 ping 64 ------- 5 4.0 5.4 -1 113
r 0.52512 4 5 ping 64 ------- 5 4.0 5.4 -1 114
r 0.525632 4 5 ping 64 ------- 5 4.0 5.4 -1 115
+ 1.1 0 4 ping 64 ------- 1 0.0 5.0 -1 116
- 1.1 0 4 ping 64 ------- 1 0.0 5.0 -1 116
+ 1.1 5 4 ping 64 ------- 5 5.4 4.0 -1 117
- 1.1 5 4 ping 64 ------- 5 5.4 4.0 -1 117
+ 1.1 0 4 ping 64 ------- 1 0.0 5.0 -1 118
+ 1.1 5 4 ping 64 ------- 5 5.4 4.0 -1 119
+ 1.1 0 4 ping 64 ------- 1 0.0 5.0 -1 120
+ 1.1 5 4 ping 64 ------- 5 5.4 4.0 -1 121
+ 1.1 0 4 ping 64 ------- 1 0.0 5.0 -1 122
+ 1.1 5 4 ping 64 ------- 5 5.4 4.0 -1 123
+ 1.1 0 4 ping 64 ------- 1 0.0 5.0 -1 124
+ 1.1 5 4 ping 64 ------- 5 5.4 4.0 -1 125
+ 1.1 0 4 ping 64 ------- 1 0.0 5.0 -1 126
+ 1.1 5 4 ping 64 ------- 5 5.4 4.0 -1 127
+ 1.1 0 4 ping 64 ------- 1 0.0 5.0 -1 128
+ 1.1 5 4 ping 64 ------- 5 5.4 4.0 -1 129
+ 1.1 0 4 ping 64 ------- 1 0.0 5.0 -1 130
+ 1.1 5 4 ping 64 ------- 5 5.4 4.0 -1 131
+ 1.1 0 4 ping 64 ------- 1 0.0 5.0 -1 132
+ 1.1 5 4 ping 64 ------- 5 5.4 4.0 -1 133
+ 1.1 0 4 ping 64 ------- 1 0.0 5.0 -1 134
+ 1.1 5 4 ping 64 ------- 5 5.4 4.0 -1 135
- 1.100512 0 4 ping 64 ------- 1 0.0 5.0 -1 118
- 1.100512 5 4 ping 64 ------- 5 5.4 4.0 -1 119
- 1.101024 0 4 ping 64 ------- 1 0.0 5.0 -1 120
- 1.101024 5 4 ping 64 ------- 5 5.4 4.0 -1 121
- 1.101536 0 4 ping 64 ------- 1 0.0 5.0 -1 122
- 1.101536 5 4 ping 64 ------- 5 5.4 4.0 -1 123
- 1.102048 0 4 ping 64 ------- 1 0.0 5.0 -1 124
- 1.102048 5 4 ping 64 ------- 5 5.4 4.0 -1 125
- 1.10256 0 4 ping 64 ------- 1 0.0 5.0 -1 126
- 1.10256 5 4 ping 64 ------- 5 5.4 4.0 -1 127
- 1.103072 0 4 ping 64 ------- 1 0.0 5.0 -1 128
- 1.103072 5 4 ping 64 ------- 5 5.4 4.0 -1 129
- 1.103584 0 4 ping 64 ------- 1 0.0 5.0 -1 130
- 1.103584 5 4 ping 64 ------- 5 5.4 4.0 -1 131
- 1.104096 0 4 ping 64 ------- 1 0.0 5.0 -1 132
- 1.104096 5 4 ping 64 ------- 5 5.4 4.0 -1 133
- 1.104608 0 4 ping 64 ------- 1 0.0 5.0 -1 134
- 1.104608 5 4 ping 64 ------- 5 5.4 4.0 -1 135
r 1.110512 0 4 ping 64 ------- 1 0.0 5.0 -1 116
+ 1.110512 4 5 ping 64 ------- 1 0.0 5.0 -1 116
- 1.110512 4 5 ping 64 ------- 1 0.0 5.0 -1 116
r 1.110512 5 4 ping 64 ------- 5 5.4 4.0 -1 117
+ 1.110512 4 5 ping 64 ------- 5 4.0 5.4 -1 136
r 1.111024 0 4 ping 64 ------- 1 0.0 5.0 -1 118
+ 1.111024 4 5 ping 64 ------- 1 0.0 5.0 -1 118
r 1.111024 5 4 ping 64 ------- 5 5.4 4.0 -1 119
+ 1.111024 4 5 ping 64 ------- 5 4.0 5.4 -1 137
d 1.111024 4 5 ping 64 ------- 5 4.0 5.4 -1 137
- 1.111024 4 5 ping 64 ------- 5 4.0 5.4 -1 136
r 1.111536 0 4 ping 64 ------- 1 0.0 5.0 -1 120
+ 1.111536 4 5 ping 64 ------- 1 0.0 5.0 -1 120
r 1.111536 5 4 ping 64 ------- 5 5.4 4.0 -1 121
+ 1.111536 4 5 ping 64 ------- 5 4.0 5.4 -1 138
d 1.111536 4 5 ping 64 ------- 5 4.0 5.4 -1 138
- 1.111536 4 5 ping 64 ------- 1 0.0 5.0 -1 118
r 1.112048 0 4 ping 64 ------- 1 0.0 5.0 -1 122
+ 1.112048 4 5 ping 64 ------- 1 0.0 5.0 -1 122
r 1.112048 5 4 ping 64 ------- 5 5.4 4.0 -1 123
+ 1.112048 4 5 ping 64 ------- 5 4.0 5.4 -1 139
d 1.112048 4 5 ping 64 ------- 5 4.0 5.4 -1 139
- 1.112048 4 5 ping 64 ------- 1 0.0 5.0 -1 120
r 1.11256 0 4 ping 64 ------- 1 0.0 5.0 -1 124
+ 1.11256 4 5 ping 64 ------- 1 0.0 5.0 -1 124
r 1.11256 5 4 ping 64 ------- 5 5.4 4.0 -1 125
+ 1.11256 4 5 ping 64 ------- 5 4.0 5.4 -1 140
d 1.11256 4 5 ping 64 ------- 5 4.0 5.4 -1 140
- 1.11256 4 5 ping 64 ------- 1 0.0 5.0 -1 122
r 1.113072 0 4 ping 64 ------- 1 0.0 5.0 -1 126
+ 1.113072 4 5 ping 64 ------- 1 0.0 5.0 -1 126
r 1.113072 5 4 ping 64 ------- 5 5.4 4.0 -1 127
+ 1.113072 4 5 ping 64 ------- 5 4.0 5.4 -1 141
d 1.113072 4 5 ping 64 ------- 5 4.0 5.4 -1 141
- 1.113072 4 5 ping 64 ------- 1 0.0 5.0 -1 124
r 1.113584 0 4 ping 64 ------- 1 0.0 5.0 -1 128
+ 1.113584 4 5 ping 64 ------- 1 0.0 5.0 -1 128
r 1.113584 5 4 ping 64 ------- 5 5.4 4.0 -1 129
+ 1.113584 4 5 ping 64 ------- 5 4.0 5.4 -1 142
d 1.113584 4 5 ping 64 ------- 5 4.0 5.4 -1 142