V -t * -v 1.0a5 -a 0
A -t * -n 1 -p 0 -o 0x7fffffff -c 30 -a 1
A -t * -h 1 -m 1073741823 -s 0
c -t * -i 4 -n yellow
c -t * -i 5 -n orange
c -t * -i 1 -n red
c -t * -i 2 -n blue
c -t * -i 3 -n green
n -t * -a 4 -s 4 -S UP -v circle -c black -i black
n -t * -a 0 -s 0 -S UP -v circle -c black -i black
n -t * -a 5 -s 5 -S UP -v circle -c black -i black
n -t * -a 1 -s 1 -S UP -v circle -c black -i black
n -t * -a 2 -s 2 -S UP -v circle -c black -i black
n -t * -a 3 -s 3 -S UP -v circle -c black -i black
l -t * -s 0 -d 4 -S UP -r 1000000 -D 0.01 -c black
l -t * -s 1 -d 4 -S UP -r 1000000 -D 0.01 -c black
l -t * -s 2 -d 4 -S UP -r 1000000 -D 0.01 -c black
l -t * -s 3 -d 4 -S UP -r 1000000 -D 0.01 -c black
l -t * -s 4 -d 5 -S UP -r 1000000 -D 0.01 -c black
q -t * -s 5 -d 4 -a 0.5
q -t * -s 4 -d 5 -a 0.5
+ -t 0.1 -s 0 -d 4 -p ping -e 64 -c 1 -i 0 -a 1 -x {0.0 5.0 -1 ------- null}
- -t 0.1 -s 0 -d 4 -p ping -e 64 -c 1 -i 0 -a 1 -x {0.0 5.0 -1 ------- null}
h -t 0.1 -s 0 -d 4 -p ping -e 64 -c 1 -i 0 -a 1 -x {0.0 5.0 -1 ------- null}
+ -t 0.1 -s 5 -d 4 -p ping -e 64 -c 5 -i 1 -a 5 -x {5.4 4.0 -1 ------- null}
- -t 0.1 -s 5 -d 4 -p ping -e 64 -c 5 -i 1 -a 5 -x {5.4 4.0 -1 ------- null}
h -t 0.1 -s 5 -d 4 -p ping -e 64 -c 5 -i 1 -a 5 -x {5.4 4.0 -1 ------- null}
+ -t 0.1 -s 0 -d 4 -p ping -e 64 -c 1 -i 2 -a 1 -x {0.0 5.0 -1 ------- null}
+ -t 0.1 -s 5 -d 4 -p ping -e 64 -c 5 -i 3 -a 5 -x {5.4 4.0 -1 ------- null}
+ -t 0.1 -s 0 -d 4 -p ping -e 64 -c 1 -i 4 -a 1 -x {0.0 5.0 -1 ------- null}
+ -t 0.1 -s 5 -d 4 -p ping -e 64 -c 5 -i 5 -a 5 -x {5.4 4.0 -1 ------- null}
+ -t 0.1 -s 0 -d 4 -p ping -e 64 -c 1 -i 6 -a 1 -x {0.0 5.0 -1 ------- null}
+ -t 0.1 -s 5 -d 4 -p ping -e 64 -c 5 -i 7 -a 5 -x {5.4 4.0 -1 ------- null}
+ -t 0.1 -s 0 -d 4 -p ping -e 64 -c 1 -i 8 -a 1 -x {0.0 5.0 -1 ------- null}
+ -t 0.1 -s 5 -d 4 -p ping -e 64 -c 5 -i 9 -a 5 -x {5.4 4.0 -1 ------- null}
+ -t 0.1 -s 0 -d 4 -p ping -e 64 -c 1 -i 10 -a 1 -x {0.0 5.0 -1 ------- null}
+ -t 0.1 -s 5 -d 4 -p ping -e 64 -c 5 -i 11 -a 5 -x {5.4 4.0 -1 ------- null}
+ -t 0.1 -s 0 -d 4 -p ping -e 64 -c 1 -i 12 -a 1 -x {0.0 5.0 -1 ------- null}
+ -t 0.1 -s 5 -d 4 -p ping -e 64 -c 5 -i 13 -a 5 -x {5.4 4.0 -1 ------- null}
+ -t 0.1 -s 0 -d 4 -p ping -e 64 -c 1 -i 14 -a 1 -x {0.0 5.0 -1 ------- null}
+ -t 0.1 -s 5 -d 4 -p ping -e 64 -c 5 -i 15 -a 5 -x {5.4 4.0 -1 ------- null}
+ -t 0.1 -s 0 -d 4 -p ping -e 64 -c 1 -i 16 -a 1 -x {0.0 5.0 -1 ------- null}
+ -t 0.1 -s 5 -d 4 -p ping -e 64 -c 5 -i 17 -a 5 -x {5.4 4.0 -1 ------- null}
+ -t 0.1 -s 0 -d 4 -p ping -e 64 -c 1 -i 18 -a 1 -x {0.0 5.0 -1 ------- null}
+ -t 0.1 -s 5 -d 4 -p ping -e 64 -c 5 -i 19 -a 5 -x {5.4 4.0 -1 ------- null}
- -t 0.100512 -s 0 -d 4 -p ping -e 64 -c 1 -i 2 -a 1 -x {0.0 5.0 -1 ------- null}
h -t 0.100512 -s 0 -d 4 -p ping -e 64 -c 1 -i 2 -a 1 -x {0.0 5.0 -1 ------- null}
- -t 0.100512 -s 5 -d 4 -p ping -e 64 -c 5 -i 3 -a 5 -x {5.4 4.0 -1 ------- null}
h -t 0.100512 -s 5 -d 4 -p ping -e 64 -c 5 -i 3 -a 5 -x {5.4 4.0 -1 ------- null}
- -t 0.101024 -s 0 -d 4 -p ping -e 64 -c 1 -i 4 -a 1 -x {0.0 5.0 -1 ------- null}
h -t 0.101024 -s 0 -d 4 -p ping -e 64 -c 1 -i 4 -a 1 -x {0.0 5.0 -1 ------- null}
- -t 0.101024 -s 5 -d 4 -p ping -e 64 -c 5 -i 5 -a 5 -x {5.4 4.0 -1 ------- null}
h -t 0.101024 -s 5 -d 4 -p ping -e 64 -c 5 -i 5 -a 5 -x {5.4 4.0 -1 ------- null}
- -t 0.101536 -s 0 -d 4 -p ping -e 64 -c 1 -i 6 -a 1 -x {0.0 5.0 -1 ------- null}
h -t 0.101536 -s 0 -d 4 -p ping -e 64 -c 1 -i 6 -a 1 -x {0.0 5.0 -1 ------- null}
- -t 0.101536 -s 5 -d 4 -p ping -e 64 -c 5 -i 7 -a 5 -x {5.4 4.0 -1 ------- null}
h -t 0.101536 -s 5 -d 4 -p ping -e 64 -c 5 -i 7 -a 5 -x {5.4 4.0 -1 ------- null}
- -t 0.102048 -s 0 -d 4 -p ping -e 64 -c 1 -i 8 -a 1 -x {0.0 5.0 -1 ------- null}
h -t 0.102048 -s 0 -d 4 -p ping -e 64 -c 1 -i 8 -a 1 -x {0.0 5.0 -1 ------- null}
- -t 0.102048 -s 5 -d 4 -p ping -e 64 -c 5 -i 9 -a 5 -x {5.4 4.0 -1 ------- null}
h -t 0.102048 -s 5 -d 4 -p ping -e 64 -c 5 -i 9 -a 5 -x {5.4 4.0 -1 ------- null}
- -t 0.10256 -s 0 -d 4 -p ping -e 64 -c 1 -i 10 -a 1 -x {0.0 5.0 -1 ------- null}
h -t 0.10256 -s 0 -d 4 -p ping -e 64 -c 1 -i 10 -a 1 -x {0.0 5.0 -1 ------- null}
- -t 0.10256 -s 5 -d 4 -p ping -e 64 -c 5 -i 11 -a 5 -x {5.4 4.0 -1 ------- null}
h -t 0.10256 -s 5 -d 4 -p ping -e 64 -c 5 -i 11 -a 5 -x {5.4 4.0 -1 ------- null}
- -t 0.103072 -s 0 -d 4 -p ping -e 64 -c 1 -i 12 -a 1 -x {0.0 5.0 -1 ------- null}
h -t 0.103072 -s 0 -d 4 -p ping -e 64 -c 1 -i 12 -a 1 -x {0.0 5.0 -1 ------- null}
- -t 0.103072 -s 5 -d 4 -p ping -e 64 -c 5 -i 13 -a 5 -x {5.4 4.0 -1 ------- null}
h -t 0.103072 -s 5 -d 4 -p ping -e 64 -c 5 -i 13 -a 5 -x {5.4 4.0 -1 ------- null}
- -t 0.103584 -s 0 -d 4 -p ping -e 64 -c 1 -i 14 -a 1 -x {0.0 5.0 -1 ------- null}
h -t 0.103584 -s 0 -d 4 -p ping -e 64 -c 1 -i 14 -a 1 -x {0.0 5.0 -1 ------- null}
- -t 0.103584 -s 5 -d 4 -p ping -e 64 -c 5 -i 15 -a 5 -x {5.4 4.0 -1 ------- null}
h -t 0.103584 -s 5 -d 4 -p ping -e 64 -c 5 -i 15 -a 5 -x {5.4 4.0 -1 ------- null}
- -t 0.104096 -s 0 -d 4 -p ping -e 64 -c 1 -i 16 -a 1 -x {0.0 5.0 -1 ------- null}
h -t 0.104096 -s 0 -d 4 -p ping -e 64 -c 1 -i 16 -a 1 -x {0.0 5.0 -1 ------- null}
- -t 0.104096 -s 5 -d 4 -p ping -e 64 -c 5 -i 17 -a 5 -x {5.4 4.0 -1 ------- null}
h -t 0.104096 -s 5 -d 4 -p ping -e 64 -c 5 -i 17 -a 5 -x {5.4 4.0 -1 ------- null}
- -t 0.104608 -s 0 -d 4 -p ping -e 64 -c 1 -i 18 -a 1 -x {0.0 5.0 -1 ------- null}
h -t 0.104608 -s 0 -d 4 -p ping -e 64 -c 1 -i 18 -a 1 -x {0.0 5.0 -1 ------- null}
- -t 0.104608 -s 5 -d 4 -p ping -e 64 -c 5 -i 19 -a 5 -x {5.4 4.0 -1 ------- null}
h -t 0.104608 -s 5 -d 4 -p ping -e 64 -c 5 -i 19 -a 5 -x {5.4 4.0 -1 ------- null}
r -t 0.110512 -s 0 -d 4 -p ping -e 64 -c 1 -i 0 -a 1 -x {0.0 5.0 -1 ------- null}
+ -t 0.110512 -s 4 -d 5 -p ping -e 64 -c 1 -i 0 -a 1 -x {0.0 5.0 -1 ------- null}
- -t 0.110512 -s 4 -d 5 -p ping -e 64 -c 1 -i 0 -a 1 -x {0.0 5.0 -1 ------- null}
h -t 0.110512 -s 4 -d 5 -p ping -e 64 -c 1 -i 0 -a 1 -x {0.0 5.0 -1 ------- null}
r -t 0.110512 -s 5 -d 4 -p ping -e 64 -c 5 -i 1 -a 5 -x {5.4 4.0 -1 ------- null}
+ -t 0.110512 -s 4 -d 5 -p ping -e 64 -c 5 -i 20 -a 5 -x {4.0 5.4 -1 ------- null}
- -t 0.111024 -s 4 -d 5 -p ping -e 64 -c 5 -i 20 -a 5 -x {4.0 5.4 -1 ------- null}
h -t 0.111024 -s 4 -d 5 -p ping -e 64 -c 5 -i 20 -a 5 -x {4.0 5.4 -1 ------- null}
r -t 0.111024 -s 0 -d 4 -p ping -e 64 -c 1 -i 2 -a 1 -x {0.0 5.0 -1 ------- null}
+ -t 0.111024 -s 4 -d 5 -p ping -e 64 -c 1 -i 2 -a 1 -x {0.0 5.0 -1 ------- null}
r -t 0.111024 -s 5 -d 4 -p ping -e 64 -c 5 -i 3 -a 5 -x {5.4 4.0 -1 ------- null}
+ -t 0.111024 -s 4 -d 5 -p ping -e 64 -c 5 -i 21 -a 5 -x {4.0 5.4 -1 ------- null}
r -t 0.111536 -s 0 -d 4 -p ping -e 64 -c 1 -i 4 -a 1 -x {0.0 5.0 -1 ------- null}
+ -t 0.111536 -s 4 -d 5 -p ping -e 64 -c 1 -i 4 -a 1 -x {0.0 5.0 -1 ------- null}
d -t 0.111536 -s 4 -d 5 -p ping -e 64 -c 1 -i 4 -a 1 -x {0.0 5.0 -1 ------- null}
r -t 0.111536 -s 5 -d 4 -p ping -e 64 -c 5 -i 5 -a 5 -x {5.4 4.0 -1 ------- null}
+ -t 0.111536 -s 4 -d 5 -p ping -e 64 -c 5 -i 22 -a 5 -x {4.0 5.4 -1 ------- null}
d -t 0.111536 -s 4 -d 5 -p ping -e 64 -c 5 -i 22 -a 5 -x {4.0 5.4 -1 ------- null}
- -t 0.111536 -s 4 -d 5 -p ping -e 64 -c 1 -i 2 -a 1 -x {0.0 5.0 -1 ------- null}
h -t 0.111536 -s 4 -d 5 -p ping -e 64 -c 1 -i 2 -a 1 -x {0.0 5.0 -1 ------- null}
- -t 0.112048 -s 4 -d 5 -p ping -e 64 -c 5 -i 21 -a 5 -x {4.0 5.4 -1 ------- null}
h -t 0.112048 -s 4 -d 5 -p ping -e 64 -c 5 -i 21 -a 5 -x {4.0 5.4 -1 ------- null}
r -t 0.112048 -s 0 -d 4 -p ping -e 64 -c 1 -i 6 -a 1 -x {0.0 5.0 -1 ------- null}
+ -t 0.112048 -s 4 -d 5 -p ping -e 64 -c 1 -i 6 -a 1 -x {0.0 5.0 -1 ------- null}
r -t 0.112048 -s 5 -d 4 -p ping -e 64 -c 5 -i 7 -a 5 -x {5.4 4.0 -1 ------- null}
+ -t 0.112048 -s 4 -d 5 -p ping -e 64 -c 5 -i 23 -a 5 -x {4.0 5.4 -1 ------- null}
r -t 0.11256 -s 0 -d 4 -p ping -e 64 -c 1 -i 8 -a 1 -x {0.0 5.0 -1 ------- null}
+ -t 0.11256 -s 4 -d 5 -p ping -e 64 -c 1 -i 8 -a 1 -x {0.0 5.0 -1 ------- null}
d -t 0.11256 -s 4 -d 5 -p ping -e 64 -c 1 -i 8 -a 1 -x {0.0 5.0 -1 ------- null}
r -t 0.11256 -s 5 -d 4 -p ping -e 64 -c 5 -i 9 -a 5 -x {5.4 4.0 -1 ------- null}
+ -t 0.11256 -s 4 -d 5 -p ping -e 64 -c 5 -i 24 -a 5 -x {4.0 5.4 -1 ------- null}
d -t 0.11256 -s 4 -d 5 -p ping -e 64 -c 5 -i 24 -a 5 -x {4.0 5.4 -1 ------- null}
- -t 0.11256 -s 4 -d 5 -p ping -e 64 -c 1 -i 6 -a 1 -x {0.0 5.0 -1 ------- null}
h -t 0.11256 -s 4 -d 5 -p ping -e 64 -c 1 -i 6 -a 1 -x {0.0 5.0 -1 ------- null}
- -t 0.113072 -s 4 -d 5 -p ping -e 64 -c 5 -i 23 -a 5 -x {4.0 5.4 -1 ------- null}
h -t 0.113072 -s 4 -d 5 -p ping -e 64 -c 5 -i 23 -a 5 -x {4.0 5.4 -1 ------- null}
r -t 0.113072 -s 0 -d 4 -p ping -e 64 -c 1 -i 10 -a 1 -x {0.0 5.0 -1 ------- null}
+ -t 0.113072 -s 4 -d 5 -p ping -e 64 -c 1 -i 10 -a 1 -x {0.0 5.0 -1 ------- null}
r -t 0.113072 -s 5 -d 4 -p ping -e 64 -c 5 -i 11 -a 5 -x {5.4 4.0 -1 ------- null}
+ -t 0.113072 -s 4 -d 5 -p ping -e 64 -c 5 -i 25 -a 5 -x {4.0 5.4 -1 ------- null}
r -t 0.113584 -s 0 -d 4 -p ping -e 64 -c 1 -i 12 -a 1 -x {0.0 5.0 -1 ------- null}
+ -t 0.113584 -s 4 -d 5 -p ping -e 64 -c 1 -i 12 -a 1 -x {0.0 5.0 -1 ------- null}
d -t 0.113584 -s 4 -d 5 -p ping -e 64 -c 1 -i 12 -a 1 -x {0.0 5.0 -1 ------- null}
r -t 0.113584 -s 5 -d 4 -p ping -e 64 -c 5 -i 13 -a 5 -x {5.4 4.0 -1 ------- null}
+ -t 0.113584 -s 4 -d 5 -p ping -e 64 -c 5 -i 26 -a 5 -x {4.0 5.4 -1 ------- null}
d -t 0.113584 -s 4 -d 5 -p ping -e 64 -c 5 -i 26 -a 5 -x {4.0 5.4 -1 ------- null}
- -t 0.113584 -s 4 -d 5 -p ping -e 64 -c 1 -i 10 -a 1 -x {0.0 5.0 -1 ------- null}
h -t 0.113584 -s 4 -d 5 -p ping -e 64 -c 1 -i 10 -a 1 -x {0.0 5.0 -1 ------- null}
- -t 0.114096 -s 4 -d 5 -p ping -e 64 -c 5 -i 25 -a 5 -x {4.0 5.4 -1 ------- null}
h -t 0.114096 -s 4 -d 5 -p ping -e 64 -c 5 -i 25 -a 5 -x {4.0 5.4 -1 ------- null}
r -t 0.114096 -s 0 -d 4 -p ping -e 64 -c 1 -i 14 -a 1 -x {0.0 5.0 -1 ------- null}
+ -t 0.114096 -s 4 -d 5 -p ping -e 64 -c 1 -i 14 -a 1 -x {0.0 5.0 -1 ------- null}
r -t 0.114096 -s 5 -d 4 -p ping -e 64 -c 5 -i 15 -a 5 -x {5.4 4.0 -1 ------- null}
+ -t 0.114096 -s 4 -d 5 -p ping -e 64 -c 5 -i 27 -a 5 -x {4.0 5.4 -1 ------- null}
r -t 0.114608 -s 0 -d 4 -p ping -e 64 -c 1 -i 16 -a 1 -x {0.0 5.0 -1 ------- null}
+ -t 0.114608 -s 4 -d 5 -p ping -e 64 -c 1 -i 16 -a 1 -x {0.0 5.0 -1 ------- null}
d -t 0.114608 -s 4 -d 5 -p ping -e 64 -c 1 -i 16 -a 1 -x {0.0 5.0 -1 ------- null}
r -t 0.114608 -s 5 -d 4 -p ping -e 64 -c 5 -i 17 -a 5 -x {5.4 4.0 -1 ------- null}
+ -t 0.114608 -s 4 -d 5 -p ping -e 64 -c 5 -i 28 -a 5 -x {4.0 5.4 -1 ------- null}
d -t 0.114608 -s 4 -d 5 -p ping -e 64 -c 5 -i 28 -a 5 -x {4.0 5.4 -1 ------- null}
- -t 0.114608 -s 4 -d 5 -p ping -e 64 -c 1 -i 14 -a 1 -x {0.0 5.0 -1 ------- null}
h -t 0.114608 -s 4 -d 5 -p ping -e 64 -c 1 -i 14 -a 1 -x {0.0 5.0 -1 ------- null}
- -t 0.11512 -s 4 -d 5 -p ping -e 64 -c 5 -i 27 -a 5 -x {4.0 5.4 -1 ------- null}
h -t 0.11512 -s 4 -d 5 -p ping -e 64 -c 5 -i 27 -a 5 -x {4.0 5.4 -1 ------- null}
r -t 0.11512 -s 0 -d 4 -p ping -e 64 -c 1 -i 18 -a 1 -x {0.0 5.0 -1 ------- null}
+ -t 0.11512 -s 4 -d 5 -p ping -e 64 -c 1 -i 18 -a 1 -x {0.0 5.0 -1 ------- null}
r -t 0.11512 -s 5 -d 4 -p ping -e 64 -c 5 -i 19 -a 5 -x {5.4 4.0 -1 ------- null}
+ -t 0.11512 -s 4 -d 5 -p ping -e 64 -c 5 -i 29 -a 5 -x {4.0 5.4 -1 ------- null}
- -t 0.115632 -s 4 -d 5 -p ping -e 64 -c 1 -i 18 -a 1 -x {0.0 5.0 -1 ------- null}
h -t 0.115632 -s 4 -d 5 -p ping -e 64 -c 1 -i 18 -a 1 -x {0.0 5.0 -1 ------- null}
- -t 0.116144 -s 4 -d 5 -p ping -e 64 -c 5 -i 29 -a 5 -x {4.0 5.4 -1 ------- null}
h -t 0.116144 -s 4 -d 5 -p ping -e 64 -c 5 -i 29 -a 5 -x {4.0 5.4 -1 ------- null}
r -t 0.121024 -s 4 -d 5 -p ping -e 64 -c 1 -i 0 -a 1 -x {0.0 5.0 -1 ------- null}
+ -t 0.121024 -s 5 -d 4 -p ping -e 64 -c 1 -i 30 -a 1 -x {5.0 0.0 -1 ------- null}
- -t 0.121024 -s 5 -d 4 -p ping -e 64 -c 1 -i 30 -a 1 -x {5.0 0.0 -1 ------- null}
h -t 0.121024 -s 5 -d 4 -p ping -e 64 -c 1 -i 30 -a 1 -x {5.0 0.0 -1 ------- null}
r -t 0.121536 -s 4 -d 5 -p ping -e 64 -c 5 -i 20 -a 5 -x {4.0 5.4 -1 ------- null}
r -t 0.122048 -s 4 -d 5 -p ping -e 64 -c 1 -i 2 -a 1 -x {0.0 5.0 -1 ------- null}
+ -t 0.122048 -s 5 -d 4 -p ping -e 64 -c 1 -i 31 -a 1 -x {5.0 0.0 -1 ------- null}
- -t 0.122048 -s 5 -d 4 -p ping -e 64 -c 1 -i 31 -a 1 -x {5.0 0.0 -1 ------- null}
h -t 0.122048 -s 5 -d 4 -p ping -e 64 -c 1 -i 31 -a 1 -x {5.0 0.0 -1 ------- null}
r -t 0.12256 -s 4 -d 5 -p ping -e 64 -c 5 -i 21 -a 5 -x {4.0 5.4 -1 ------- null}
r -t 0.123072 -s 4 -d 5 -p ping -e 64 -c 1 -i 6 -a 1 -x {0.0 5.0 -1 ------- null}
+ -t 0.123072 -s 5 -d 4 -p ping -e 64 -c 1 -i 32 -a 1 -x {5.0 0.0 -1 ------- null}
- -t 0.123072 -s 5 -d 4 -p ping -e 64 -c 1 -i 32 -a 1 -x {5.0 0.0 -1 ------- null}
h -t 0.123072 -s 5 -d 4 -p ping -e 64 -c 1 -i 32 -a 1 -x {5.0 0.0 -1 ------- null}
r -t 0.123584 -s 4 -d 5 -p ping -e 64 -c 5 -i 23 -a 5 -x {4.0 5.4 -1 ------- null}
r -t 0.124096 -s 4 -d 5 -p ping -e 64 -c 1 -i 10 -a 1 -x {0.0 5.0 -1 ------- null}
+ -t 0.124096 -s 5 -d 4 -p ping -e 64 -c 1 -i 33 -a 1 -x {5.0 0.0 -1 ------- null}
- -t 0.124096 -s 5 -d 4 -p ping -e 64 -c 1 -i 33 -a 1 -x {5.0 0.0 -1 ------- null}
h -t 0.124096 -s 5 -d 4 -p ping -e 64 -c 1 -i 33 -a 1 -x {5.0 0.0 -1 ------- null}
r -t 0.124608 -s 4 -d 5 -p ping -e 64 -c 5 -i 25 -a 5 -x {4.0 5.4 -1 ------- null}
r -t 0.12512 -s 4 -d 5 -p ping -e 64 -c 1 -i 14 -a 1 -x {0.0 5.0 -1 ------- null}
+ -t 0.12512 -s 5 -d 4 -p ping -e 64 -c 1 -i 34 -a 1 -x {5.0 0.0 -1 ------- null}
- -t 0.12512 -s 5 -d 4 -p ping -e 64 -c 1 -i 34 -a 1 -x {5.0 0.0 -1 ------- null}
h -t 0.12512 -s 5 -d 4 -p ping -e 64 -c 1 -i 34 -a 1 -x {5.0 0.0 -1 ------- null}
r -t 0.125632 -s 4 -d 5 -p ping -e 64 -c 5 -i 27 -a 5 -x {4.0 5.4 -1 ------- null}
r -t 0.126144 -s 4 -d 5 -p ping -e 64 -c 1 -i 18 -a 1 -x {0.0 5.0 -1 ------- null}
+ -t 0.126144 -s 5 -d 4 -p ping -e 64 -c 1 -i 35 -a 1 -x {5.0 0.0 -1 ------- null}
- -t 0.126144 -s 5 -d 4 -p ping -e 64 -c 1 -i 35 -a 1 -x {5.0 0.0 -1 ------- null}
h -t 0.126144 -s 5 -d 4 -p ping -e 64 -c 1 -i 35 -a 1 -x {5.0 0.0 -1 ------- null}
r -t 0.126656 -s 4 -d 5 -p ping -e 64 -c 5 -i 29 -a 5 -x {4.0 5.4 -1 ------- null}
r -t 0.131536 -s 5 -d 4 -p ping -e 64 -c 1 -i 30 -a 1 -x {5.0 0.0 -1 ------- null}
+ -t 0.131536 -s 4 -d 0 -p ping -e 64 -c 1 -i 30 -a 1 -x {5.0 0.0 -1 ------- null}
- -t 0.131536 -s 4 -d 0 -p ping -e 64 -c 1 -i 30 -a 1 -x {5.0 0.0 -1 ------- null}
h -t 0.131536 -s 4 -d 0 -p ping -e 64 -c 1 -i 30 -a 1 -x {5.0 0.0 -1 ------- null}
r -t 0.13256 -s 5 -d 4 -p ping -e 64 -c 1 -i 31 -a 1 -x {5.0 0.0 -1 ------- null}
+ -t 0.13256 -s 4 -d 0 -p ping -e 64 -c 1 -i 31 -a 1 -x {5.0 0.0 -1 ------- null}
- -t 0.13256 -s 4 -d 0 -p ping -e 64 -c 1 -i 31 -a 1 -x {5.0 0.0 -1 ------- null}
h -t 0.13256 -s 4 -d 0 -p ping -e 64 -c 1 -i 31 -a 1 -x {5.0 0.0 -1 ------- null}
r -t 0.133584 -s 5 -d 4 -p ping -e 64 -c 1 -i 32 -a 1 -x {5.0 0.0 -1 ------- null}
+ -t 0.133584 -s 4 -d 0 -p ping -e 64 -c 1 -i 32 -a 1 -x {5.0 0.0 -1 ------- null}
- -t 0.133584 -s 4 -d 0 -p ping -e 64 -c 1 -i 32 -a 1 -x {5.0 0.0 -1 ------- null}
h -t 0.133584 -s 4 -d 0 -p ping -e 64 -c 1 -i 32 -a 1 -x {5.0 0.0 -1 ------- null}
r -t 0.134608 -s 5 -d 4 -p ping -e 64 -c 1 -i 33 -a 1 -x {5.0 0.0 -1 ------- null}
+ -t 0.134608 -s 4 -d 0 -p ping -e 64 -c 1 -i 33 -a 1 -x {5.0 0.0 -1 ------- null}
- -t 0.134608 -s 4 -d 0 -p ping -e 64 -c 1 -i 33 -a 1 -x {5.0 0.0 -1 ------- null}
h -t 0.134608 -s 4 -d 0 -p ping -e 64 -c 1 -i 33 -a 1 -x {5.0 0.0 -1 ------- null}
r -t 0.135632 -s 5 -d 4 -p ping -e 64 -c 1 -i 34 -a 1 -x {5.0 0.0 -1 ------- null}
+ -t 0.135632 -s 4 -d 0 -p ping -e 64 -c 1 -i 34 -a 1 -x {5.0 0.0 -1 ------- null}
- -t 0.135632 -s 4 -d 0 -p ping -e 64 -c 1 -i 34 -a 1 -x {5.0 0.0 -1 ------- null}
h -t 0.135632 -s 4 -d 0 -p ping -e 64 -c 1 -i 34 -a 1 -x {5.0 0.0 -1 ------- null}
r -t 0.136656 -s 5 -d 4 -p ping -e 64 -c 1 -i 35 -a 1 -x {5.0 0.0 -1 ------- null}
+ -t 0.136656 -s 4 -d 0 -p ping -e 64 -c 1 -i 35 -a 1 -x {5.0 0.0 -1 ------- null}
- -t 0.136656 -s 4 -d 0 -p ping -e 64 -c 1 -i 35 -a 1 -x {5.0 0.0 -1 ------- null}
h -t 0.136656 -s 4 -d 0 -p ping -e 64 -c 1 -i 35 -a 1 -x {5.0 0.0 -1 ------- null}
r -t 0.142048 -s 4 -d 0 -p ping -e 64 -c 1 -i 30 -a 1 -x {5.0 0.0 -1 ------- null}
r -t 0.143072 -s 4 -d 0 -p ping -e 64 -c 1 -i 31 -a 1 -x {5.0 0.0 -1 ------- null}
r -t 0.144096 -s 4 -d 0 -p ping -e 64 -c 1 -i 32 -a 1 -x {5.0 0.0 -1 ------- null}
r -t 0.14512 -s 4 -d 0 -p ping -e 64 -c 1 -i 33 -a 1 -x {5.0 0.0 -1 ------- null}
r -t 0.146144 -s 4 -d 0 -p ping -e 64 -c 1 -i 34 -a 1 -x {5.0 0.0 -1 ------- null}
r -t 0.147168 -s 4 -d 0 -p ping -e 64 -c 1 -i 35 -a 1 -x {5.0 0.0 -1 ------- null}
+ -t 0.2 -s 1 -d 4 -p ping -e 64 -c 2 -i 36 -a 2 -x {1.0 5.1 -1 ------- null}
- -t 0.2 -s 1 -d 4 -p ping -e 64 -c 2 -i 36 -a 2 -x {1.0 5.1 -1 ------- null}
h -t 0.2 -s 1 -d 4 -p ping -e 64 -c 2 -i 36 -a 2 -x {1.0 5.1 -1 ------- null}
+ -t 0.2 -s 1 -d 4 -p ping -e 64 -c 2 -i 37 -a 2 -x {1.0 5.1 -1 ------- null}
+ -t 0.2 -s 1 -d 4 -p ping -e 64 -c 2 -i 38 -a 2 -x {1.0 5.1 -1 ------- null}
+ -t 0.2 -s 1 -d 4 -p ping -e 64 -c 2 -i 39 -a 2 -x {1.0 5.1 -1 ------- null}
+ -t 0.2 -s 1 -d 4 -p ping -e 64 -c 2 -i 40 -a 2 -x {1.0 5.1 -1 ------- null}
+ -t 0.2 -s 1 -d 4 -p ping -e 64 -c 2 -i 41 -a 2 -x {1.0 5.1 -1 ------- null}
+ -t 0.2 -s 1 -d 4 -p ping -e 64 -c 2 -i 42 -a 2 -x {1.0 5.1 -1 ------- null}
+ -t 0.2 -s 1 -d 4 -p ping -e 64 -c 2 -i 43 -a 2 -x {1.0 5.1 -1 ------- null}
+ -t 0.2 -s 1 -d 4 -p ping -e 64 -c 2 -i 44 -a 2 -x {1.0 5.1 -1 ------- null}
+ -t 0.2 -s 1 -d 4 -p ping -e 64 -c 2 -i 45 -a 2 -x {1.0 5.1 -1 ------- null}
- -t 0.200512 -s 1 -d 4 -p ping -e 64 -c 2 -i 37 -a 2 -x {1.0 5.1 -1 ------- null}
h -t 0.200512 -s 1 -d 4 -p ping -e 64 -c 2 -i 37 -a 2 -x {1.0 5.1 -1 ------- null}
- -t 0.201024 -s 1 -d 4 -p ping -e 64 -c 2 -i 38 -a 2 -x {1.0 5.1 -1 ------- null}
h -t 0.201024 -s 1 -d 4 -p ping -e 64 -c 2 -i 38 -a 2 -x {1.0 5.1 -1 ------- null}
- -t 0.201536 -s 1 -d 4 -p ping -e 64 -c 2 -i 39 -a 2 -x {1.0 5.1 -1 ------- null}
h -t 0.201536 -s 1 -d 4 -p ping -e 64 -c 2 -i 39 -a 2 -x {1.0 5.1 -1 ------- null}
- -t 0.202048 -s 1 -d 4 -p ping -e 64 -c 2 -i 40 -a 2 -x {1.0 5.1 -1 ------- null}
h -t 0.202048 -s 1 -d 4 -p ping -e 64 -c 2 -i 40 -a 2 -x {1.0 5.1 -1 ------- null}
- -t 0.20256 -s 1 -d 4 -p ping -e 64 -c 2 -i 41 -a 2 -x {1.0 5.1 -1 ------- null}
h -t 0.20256 -s 1 -d 4 -p ping -e 64 -c 2 -i 41 -a 2 -x {1.0 5.1 -1 ------- null}
- -t 0.203072 -s 1 -d 4 -p ping -e 64 -c 2 -i 42 -a 2 -x {1.0 5.1 -1 ------- null}
h -t 0.203072 -s 1 -d 4 -p ping -e 64 -c 2 -i 42 -a 2 -x {1.0 5.1 -1 ------- null}
- -t 0.203584 -s 1 -d 4 -p ping -e 64 -c 2 -i 43 -a 2 -x {1.0 5.1 -1 ------- null}
h -t 0.203584 -s 1 -d 4 -p ping -e 64 -c 2 -i 43 -a 2 -x {1.0 5.1 -1 ------- null}
- -t 0.204096 -s 1 -d 4 -p ping -e 64 -c 2 -i 44 -a 2 -x {1.0 5.1 -1 ------- null}
h -t 0.204096 -s 1 -d 4 -p ping -e 64 -c 2 -i 44 -a 2 -x {1.0 5.1 -1 ------- null}
- -t 0.204608 -s 1 -d 4 -p ping -e 64 -c 2 -i 45 -a 2 -x {1.0 5.1 -1 ------- null}
h -t 0.204608 -s 1 -d 4 -p ping -e 64 -c 2 -i 45 -a 2 -x {1.0 5.1 -1 ------- null}
r -t 0.210512 -s 1 -d 4 -p ping -e 64 -c 2 -i 36 -a 2 -x {1.0 5.1 -1 ------- null}
+ -t 0.210512 -s 4 -d 5 -p ping -e 64 -c 2 -i 36 -a 2 -x {1.0 5.1 -1 ------- null}
- -t 0.210512 -s 4 -d 5 -p ping -e 64 -c 2 -i 36 -a 2 -x {1.0 5.1 -1 ------- null}
h -t 0.210512 -s 4 -d 5 -p ping -e 64 -c 2 -i 36 -a 2 -x {1.0 5.1 -1 ------- null}
r -t 0.211024 -s 1 -d 4 -p ping -e 64 -c 2 -i 37 -a 2 -x {1.0 5.1 -1 ------- null}
+ -t 0.211024 -s 4 -d 5 -p ping -e 64 -c 2 -i 37 -a 2 -x {1.0 5.1 -1 ------- null}
- -t 0.211024 -s 4 -d 5 -p ping -e 64 -c 2 -i 37 -a 2 -x {1.0 5.1 -1 ------- null}
h -t 0.211024 -s 4 -d 5 -p ping -e 64 -c 2 -i 37 -a 2 -x {1.0 5.1 -1 ------- null}
r -t 0.211536 -s 1 -d 4 -p ping -e 64 -c 2 -i 38 -a 2 -x {1.0 5.1 -1 ------- null}
+ -t 0.211536 -s 4 -d 5 -p ping -e 64 -c 2 -i 38 -a 2 -x {1.0 5.1 -1 ------- null}
- -t 0.211536 -s 4 -d 5 -p ping -e 64 -c 2 -i 38 -a 2 -x {1.0 5.1 -1 ------- null}
h -t 0.211536 -s 4 -d 5 -p ping -e 64 -c 2 -i 38 -a 2 -x {1.0 5.1 -1 ------- null}
r -t 0.212048 -s 1 -d 4 -p ping -e 64 -c 2 -i 39 -a 2 -x {1.0 5.1 -1 ------- null}
+ -t 0.212048 -s 4 -d 5 -p ping -e 64 -c 2 -i 39 -a 2 -x {1.0 5.1 -1 ------- null}
- -t 0.212048 -s 4 -d 5 -p ping -e 64 -c 2 -i 39 -a 2 -x {1.0 5.1 -1 ------- null}
h -t 0.212048 -s 4 -d 5 -p ping -e 64 -c 2 -i 39 -a 2 -x {1.0 5.1 -1 ------- null}
r -t 0.21256 -s 1 -d 4 -p ping -e 64 -c 2 -i 40 -a 2 -x {1.0 5.1 -1 ------- null}
+ -t 0.21256 -s 4 -d 5 -p ping -e 64 -c 2 -i 40 -a 2 -x {1.0 5.1 -1 ------- null}
- -t 0.21256 -s 4 -d 5 -p ping -e 64 -c 2 -i 40 -a 2 -x {1.0 5.1 -1 ------- null}
h -t 0.21256 -s 4 -d 5 -p ping -e 64 -c 2 -i 40 -a 2 -x {1.0 5.1 -1 ------- null}
r -t 0.213072 -s 1 -d 4 -p ping -e 64 -c 2 -i 41 -a 2 -x {1.0 5.1 -1 ------- null}
+ -t 0.213072 -s 4 -d 5 -p ping -e 64 -c 2 -i 41 -a 2 -x {1.0 5.1 -1 ------- null}
- -t 0.213072 -s 4 -d 5 -p ping -e 64 -c 2 -i 41 -a 2 -x {1.0 5.1 -1 ------- null}
h -t 0.213072 -s 4 -d 5 -p ping -e 64 -c 2 -i 41 -a 2 -x {1.0 5.1 -1 ------- null}
r -t 0.213584 -s 1 -d 4 -p ping -e 64 -c 2 -i 42 -a 2 -x {1.0 5.1 -1 ------- null}
+ -t 0.213584 -s 4 -d 5 -p ping -e 64 -c 2 -i 42 -a 2 -x {1.0 5.1 -1 ------- null}
- -t 0.213584 -s 4 -d 5 -p ping -e 64 -c 2 -i 42 -a 2 -x {1.0 5.1 -1 ------- null}
h -t 0.213584 -s 4 -d 5 -p ping -e 64 -c 2 -i 42 -a 2 -x {1.0 5.1 -1 ------- null}
r -t 0.214096 -s 1 -d 4 -p ping -e 64 -c 2 -i 43 -a 2 -x {1.0 5.1 -1 ------- null}
+ -t 0.214096 -s 4 -d 5 -p ping -e 64 -c 2 -i 43 -a 2 -x {1.0 5.1 -1 ------- null}
- -t 0.214096 -s 4 -d 5 -p ping -e 64 -c 2 -i 43 -a 2 -x {1.0 5.1 -1 ------- null}
h -t 0.214096 -s 4 -d 5 -p ping -e 64 -c 2 -i 43 -a 2 -x {1.0 5.1 -1 ------- null}
r -t 0.214608 -s 1 -d 4 -p ping -e 64 -c 2 -i 44 -a 2 -x {1.0 5.1 -1 ------- null}
+ -t 0.214608 -s 4 -d 5 -p ping -e 64 -c 2 -i 44 -a 2 -x {1.0 5.1 -1 ------- null}
- -t 0.214608 -s 4 -d 5 -p ping -e 64 -c 2 -i 44 -a 2 -x {1.0 5.1 -1 ------- null}
h -t 0.214608 -s 4 -d 5 -p ping -e 64 -c 2 -i 44 -a 2 -x {1.0 5.1 -1 ------- null}
r -t 0.21512 -s 1 -d 4 -p ping -e 64 -c 2 -i 45 -a 2 -x {1.0 5.1 -1 ------- null}
+ -t 0.21512 -s 4 -d 5 -p ping -e 64 -c 2 -i 45 -a 2 -x {1.0 5.1 -1 ------- null}
- -t 0.21512 -s 4 -d 5 -p ping -e 64 -c 2 -i 45 -a 2 -x {1.0 5.1 -1 ------- null}
h -t 0.21512 -s 4 -d 5 -p ping -e 64 -c 2 -i 45 -a 2 -x {1.0 5.1 -1 ------- null}
r -t 0.221024 -s 4 -d 5 -p ping -e 64 -c 2 -i 36 -a 2 -x {1.0 5.1 -1 ------- null}
+ -t 0.221024 -s 5 -d 4 -p ping -e 64 -c 2 -i 46 -a 2 -x {5.1 1.0 -1 ------- null}
- -t 0.221024 -s 5 -d 4 -p ping -e 64 -c 2 -i 46 -a 2 -x {5.1 1.0 -1 ------- null}
h -t 0.221024 -s 5 -d 4 -p ping -e 64 -c 2 -i 46 -a 2 -x {5.1 1.0 -1 ------- null}
r -t 0.221536 -s 4 -d 5 -p ping -e 64 -c 2 -i 37 -a 2 -x {1.0 5.1 -1 ------- null}
+ -t 0.221536 -s 5 -d 4 -p ping -e 64 -c 2 -i 47 -a 2 -x {5.1 1.0 -1 ------- null}
- -t 0.221536 -s 5 -d 4 -p ping -e 64 -c 2 -i 47 -a 2 -x {5.1 1.0 -1 ------- null}
h -t 0.221536 -s 5 -d 4 -p ping -e 64 -c 2 -i 47 -a 2 -x {5.1 1.0 -1 ------- null}
r -t 0.222048 -s 4 -d 5 -p ping -e 64 -c 2 -i 38 -a 2 -x {1.0 5.1 -1 ------- null}
+ -t 0.222048 -s 5 -d 4 -p ping -e 64 -c 2 -i 48 -a 2 -x {5.1 1.0 -1 ------- null}
- -t 0.222048 -s 5 -d 4 -p ping -e 64 -c 2 -i 48 -a 2 -x {5.1 1.0 -1 ------- null}
h -t 0.222048 -s 5 -d 4 -p ping -e 64 -c 2 -i 48 -a 2 -x {5.1 1.0 -1 ------- null}
r -t 0.22256 -s 4 -d 5 -p ping -e 64 -c 2 -i 39 -a 2 -x {1.0 5.1 -1 ------- null}
+ -t 0.22256 -s 5 -d 4 -p ping -e 64 -c 2 -i 49 -a 2 -x {5.1 1.0 -1 ------- null}
- -t 0.22256 -s 5 -d 4 -p ping -e 64 -c 2 -i 49 -a 2 -x {5.1 1.0 -1 ------- null}
h -t 0.22256 -s 5 -d 4 -p ping -e 64 -c 2 -i 49 -a 2 -x {5.1 1.0 -1 ------- null}
r -t 0.223072 -s 4 -d 5 -p ping -e 64 -c 2 -i 40 -a 2 -x {1.0 5.1 -1 ------- null}
+ -t 0.223072 -s 5 -d 4 -p ping -e 64 -c 2 -i 50 -a 2 -x {5.1 1.0 -1 ------- null}
- -t 0.223072 -s 5 -d 4 -p ping -e 64 -c 2 -i 50 -a 2 -x {5.1 1.0 -1 ------- null}
h -t 0.223072 -s 5 -d 4 -p ping -e 64 -c 2 -i 50 -a 2 -x {5.1 1.0 -1 ------- null}
r -t 0.223584 -s 4 -d 5 -p ping -e 64 -c 2 -i 41 -a 2 -x {1.0 5.1 -1 ------- null}
+ -t 0.223584 -s 5 -d 4 -p ping -e 64 -c 2 -i 51 -a 2 -x {5.1 1.0 -1 ------- null}
- -t 0.223584 -s 5 -d 4 -p ping -e 64 -c 2 -i 51 -a 2 -x {5.1 1.0 -1 ------- null}
h -t 0.223584 -s 5 -d 4 -p ping -e 64 -c 2 -i 51 -a 2 -x {5.1 1.0 -1 ------- null}
r -t 0.224096 -s 4 -d 5 -p ping -e 64 -c 2 -i 42 -a 2 -x {1.0 5.1 -1 ------- null}
+ -t 0.224096 -s 5 -d 4 -p ping -e 64 -c 2 -i 52 -a 2 -x {5.1 1.0 -1 ------- null}
- -t 0.224096 -s 5 -d 4 -p ping -e 64 -c 2 -i 52 -a 2 -x {5.1 1.0 -1 ------- null}
h -t 0.224096 -s 5 -d 4 -p ping -e 64 -c 2 -i 52 -a 2 -x {5.1 1.0 -1 ------- null}
r -t 0.224608 -s 4 -d 5 -p ping -e 64 -c 2 -i 43 -a 2 -x {1.0 5.1 -1 ------- null}
+ -t 0.224608 -s 5 -d 4 -p ping -e 64 -c 2 -i 53 -a 2 -x {5.1 1.0 -1 ------- null}
- -t 0.224608 -s 5 -d 4 -p ping -e 64 -c 2 -i 53 -a 2 -x {5.1 1.0 -1 ------- null}
h -t 0.224608 -s 5 -d 4 -p ping -e 64 -c 2 -i 53 -a 2 -x {5.1 1.0 -1 ------- null}
r -t 0.22512 -s 4 -d 5 -p ping -e 64 -c 2 -i 44 -a 2 -x {1.0 5.1 -1 ------- null}
+ -t 0.22512 -s 5 -d 4 -p ping -e 64 -c 2 -i 54 -a 2 -x {5.1 1.0 -1 ------- null}
- -t 0.22512 -s 5 -d 4 -p ping -e 64 -c 2 -i 54 -a 2 -x {5.1 1.0 -1 ------- null}
h -t 0.22512 -s 5 -d 4 -p ping -e 64 -c 2 -i 54 -a 2 -x {5.1 1.0 -1 ------- null}
r -t 0.225632 -s 4 -d 5 -p ping -e 64 -c 2 -i 45 -a 2 -x {1.0 5.1 -1 ------- null}
+ -t 0.225632 -s 5 -d 4 -p ping -e 64 -c 2 -i 55 -a 2 -x {5.1 1.0 -1 ------- null}
- -t 0.225632 -s 5 -d 4 -p ping -e 64 -c 2 -i 55 -a 2 -x {5.1 1.0 -1 ------- null}
h -t 0.225632 -s 5 -d 4 -p ping -e 64 -c 2 -i 55 -a 2 -x {5.1 1.0 -1 ------- null}
r -t 0.231536 -s 5 -d 4 -p ping -e 64 -c 2 -i 46 -a 2 -x {5.1 1.0 -1 ------- null}
+ -t 0.231536 -s 4 -d 1 -p ping -e 64 -c 2 -i 46 -a 2 -x {5.1 1.0 -1 ------- null}
- -t 0.231536 -s 4 -d 1 -p ping -e 64 -c 2 -i 46 -a 2 -x {5.1 1.0 -1 ------- null}
h -t 0.231536 -s 4 -d 1 -p ping -e 64 -c 2 -i 46 -a 2 -x {5.1 1.0 -1 ------- null}
r -t 0.232048 -s 5 -d 4 -p ping -e 64 -c 2 -i 47 -a 2 -x {5.1 1.0 -1 ------- null}
+ -t 0.232048 -s 4 -d 1 -p ping -e 64 -c 2 -i 47 -a 2 -x {5.1 1.0 -1 ------- null}
- -t 0.232048 -s 4 -d 1 -p ping -e 64 -c 2 -i 47 -a 2 -x {5.1 1.0 -1 ------- null}
h -t 0.232048 -s 4 -d 1 -p ping -e 64 -c 2 -i 47 -a 2 -x {5.1 1.0 -1 ------- null}
r -t 0.23256 -s 5 -d 4 -p ping -e 64 -c 2 -i 48 -a 2 -x {5.1 1.0 -1 ------- null}
+ -t 0.23256 -s 4 -d 1 -p ping -e 64 -c 2 -i 48 -a 2 -x {5.1 1.0 -1 ------- null}
- -t 0.23256 -s 4 -d 1 -p ping -e 64 -c 2 -i 48 -a 2 -x {5.1 1.0 -1 ------- null}
h -t 0.23256 -s 4 -d 1 -p ping -e 64 -c 2 -i 48 -a 2 -x {5.1 1.0 -1 ------- null}
r -t 0.233072 -s 5 -d 4 -p ping -e 64 -c 2 -i 49 -a 2 -x {5.1 1.0 -1 ------- null}
+ -t 0.233072 -s 4 -d 1 -p ping -e 64 -c 2 -i 49 -a 2 -x {5.1 1.0 -1 ------- null}
- -t 0.233072 -s 4 -d 1 -p ping -e 64 -c 2 -i 49 -a 2 -x {5.1 1.0 -1 ------- null}
h -t 0.233072 -s 4 -d 1 -p ping -e 64 -c 2 -i 49 -a 2 -x {5.1 1.0 -1 ------- null}
r -t 0.233584 -s 5 -d 4 -p ping -e 64 -c 2 -i 50 -a 2 -x {5.1 1.0 -1 ------- null}
+ -t 0.233584 -s 4 -d 1 -p ping -e 64 -c 2 -i 50 -a 2 -x {5.1 1.0 -1 ------- null}
- -t 0.233584 -s 4 -d 1 -p ping -e 64 -c 2 -i 50 -a 2 -x {5.1 1.0 -1 ------- null}
h -t 0.233584 -s 4 -d 1 -p ping -e 64 -c 2 -i 50 -a 2 -x {5.1 1.0 -1 ------- null}
r -t 0.234096 -s 5 -d 4 -p ping -e 64 -c 2 -i 51 -a 2 -x {5.1 1.0 -1 ------- null}
+ -t 0.234096 -s 4 -d 1 -p ping -e 64 -c 2 -i 51 -a 2 -x {5.1 1.0 -1 ------- null}
- -t 0.234096 -s 4 -d 1 -p ping -e 64 -c 2 -i 51 -a 2 -x {5.1 1.0 -1 ------- null}
h -t 0.234096 -s 4 -d 1 -p ping -e 64 -c 2 -i 51 -a 2 -x {5.1 1.0 -1 ------- null}
r -t 0.234608 -s 5 -d 4 -p ping -e 64 -c 2 -i 52 -a 2 -x {5.1 1.0 -1 ------- null}
+ -t 0.234608 -s 4 -d 1 -p ping -e 64 -c 2 -i 52 -a 2 -x {5.1 1.0 -1 ------- null}
- -t 0.234608 -s 4 -d 1 -p ping -e 64 -c 2 -i 52 -a 2 -x {5.1 1.0 -1 ------- null}
h -t 0.234608 -s 4 -d 1 -p ping -e 64 -c 2 -i 52 -a 2 -x {5.1 1.0 -1 ------- null}
r -t 0.23512 -s 5 -d 4 -p ping -e 64 -c 2 -i 53 -a 2 -x {5.1 1.0 -1 ------- null}
+ -t 0.23512 -s 4 -d 1 -p ping -e 64 -c 2 -i 53 -a 2 -x {5.1 1.0 -1 ------- null}
- -t 0.23512 -s 4 -d 1 -p ping -e 64 -c 2 -i 53 -a 2 -x {5.1 1.0 -1 ------- null}
h -t 0.23512 -s 4 -d 1 -p ping -e 64 -c 2 -i 53 -a 2 -x {5.1 1.0 -1 ------- null}
r -t 0.235632 -s 5 -d 4 -p ping -e 64 -c 2 -i 54 -a 2 -x {5.1 1.0 -1 ------- null}
+ -t 0.235632 -s 4 -d 1 -p ping -e 64 -c 2 -i 54 -a 2 -x {5.1 1.0 -1 ------- null}
- -t 0.235632 -s 4 -d 1 -p ping -e 64 -c 2 -i 54 -a 2 -x {5.1 1.0 -1 ------- null}
h -t 0.235632 -s 4 -d 1 -p ping -e 64 -c 2 -i 54 -a 2 -x {5.1 1.0 -1 ------- null}
r -t 0.236144 -s 5 -d 4 -p ping -e 64 -c 2 -i 55 -a 2 -x {5.1 1.0 -1 ------- null}
+ -t 0.236144 -s 4 -d 1 -p ping -e 64 -c 2 -i 55 -a 2 -x {5.1 1.0 -1 ------- null}
- -t 0.236144 -s 4 -d 1 -p ping -e 64 -c 2 -i 55 -a 2 -x {5.1 1.0 -1 ------- null}
h -t 0.236144 -s 4 -d 1 -p ping -e 64 -c 2 -i 55 -a 2 -x {5.1 1.0 -1 ------- null}
r -t 0.242048 -s 4 -d 1 -p ping -e 64 -c 2 -i 46 -a 2 -x {5.1 1.0 -1 ------- null}
r -t 0.24256 -s 4 -d 1 -p ping -e 64 -c 2 -i 47 -a 2 -x {5.1 1.0 -1 ------- null}
r -t 0.243072 -s 4 -d 1 -p ping -e 64 -c 2 -i 48 -a 2 -x {5.1 1.0 -1 ------- null}
r -t 0.243584 -s 4 -d 1 -p ping -e 64 -c 2 -i 49 -a 2 -x {5.1 1.0 -1 ------- null}
r -t 0.244096 -s 4 -d 1 -p ping -e 64 -c 2 -i 50 -a 2 -x {5.1 1.0 -1 ------- null}
r -t 0.244608 -s 4 -d 1 -p ping -e 64 -c 2 -i 51 -a 2 -x {5.1 1.0 -1 ------- null}
r -t 0.24512 -s 4 -d 1 -p ping -e 64 -c 2 -i 52 -a 2 -x {5.1 1.0 -1 ------- null}
r -t 0.245632 -s 4 -d 1 -p ping -e 64 -c 2 -i 53 -a 2 -x {5.1 1.0 -1 ------- null}
r -t 0.246144 -s 4 -d 1 -p ping -e 64 -c 2 -i 54 -a 2 -x {5.1 1.0 -1 ------- null}
r -t 0.246656 -s 4 -d 1 -p ping -e 64 -c 2 -i 55 -a 2 -x {5.1 1.0 -1 ------- null}
+ -t 0.3 -s 2 -d 4 -p ping -e 64 -c 3 -i 56 -a 3 -x {2.0 5.2 -1 ------- null}
- -t 0.3 -s 2 -d 4 -p ping -e 64 -c 3 -i 56 -a 3 -x {2.0 5.2 -1 ------- null}
h -t 0.3 -s 2 -d 4 -p ping -e 64 -c 3 -i 56 -a 3 -x {2.0 5.2 -1 ------- null}